/home/eric/opt/apps/qchem/trunk_intel_release/exe/qcprog.exe .Li_STO-3G_qchem.in.5462.qcin.1 /home/eric/scratch/qchem/qchem5462/

                  Welcome to Q-Chem
     A Quantum Leap Into The Future Of Chemistry


 Q-Chem 4.3, Q-Chem, Inc., Pleasanton, CA (2015)

 Y. Shao,  Z. Gan,  E. Epifanovsky,  A. T. B. Gilbert,  M. Wormit,  
 J. Kussmann,  A. W. Lange,  A. Behn,  J. Deng,  X. Feng,  D. Ghosh,  
 M. Goldey,  P. R. Horn,  L. D. Jacobson,  I. Kaliman,  R. Z. Khaliullin,  
 T. Kus,  A. Landau,  J. Liu,  E. I. Proynov,  Y. M. Rhee,  R. M. Richard,  
 M. A. Rohrdanz,  R. P. Steele,  E. J. Sundstrom,  H. L. Woodcock III,  
 P. M. Zimmerman,  D. Zuev,  B. Albrecht,  E. Alguire,  B. Austin,  
 S. A. Baeppler,  G. J. O. Beran,  Y. A. Bernard,  E. Berquist,  
 K. Brandhorst,  K. B. Bravaya,  S. T. Brown,  D. Casanova,  C.-M. Chang,  
 Y. Chen,  S. H. Chien,  K. D. Closser,  D. L. Crittenden,  M. Diedenhofen,  
 R. A. DiStasio Jr.,  H. Do,  A. D. Dutoi,  R. G. Edgar,  P.-T. Fang,  
 S. Fatehi,  Q. Feng,  L. Fusti-Molnar,  A. Ghysels,  
 A. Golubeva-Zadorozhnaya,  J. Gomes,  A. Gunina,  M. W. D. Hanson-Heine,  
 P. H. P. Harbach,  A. W. Hauser,  E. G. Hohenstein,  Z. C. Holden,  K. Hui,  
 T.-C. Jagau,  H. Ji,  B. Kaduk,  K. Khistyaev,  Jaehoon Kim,  Jihan Kim,  
 R. A. King,  P. Klunzinger,  D. Kosenkov,  T. Kowalczyk,  C. M. Krauter,  
 K. U. Lao,  A. Laurent,  K. V. Lawler,  S. Lehtola,  S. V. Levchenko,  
 C. Y. Lin,  Y.-S. Lin,  F. Liu,  E. Livshits,  R. C. Lochan,  A. Luenser,  
 P. Manohar,  S. F. Manzer,  S.-P. Mao,  N. Mardirossian,  A. V. Marenich,  
 L. A. Martinez-Martinez,  S. A. Maurer,  N. J. Mayhall,  K. Nanda,  
 C. M. Oana,  R. Olivares-Amaya,  D. P. O'Neill,  J. A. Parkhill,  
 T. M. Perrine,  R. Peverati,  P. A. Pieniazek,  F. Plasser,  A. Prociuk,  
 D. R. Rehn,  E. Rosta,  N. J. Russ,  N. Sergueev,  S. M. Sharada,  
 S. Sharma,  D. W. Small,  A. Sodt,  T. Stauch,  T. Stein,  D. Stuck,  
 Y.-C. Su,  A. J. W. Thom,  T. Tsuchimochi,  L. Vogt,  O. Vydrov,  T. Wang,  
 M. A. Watson,  J. Wenzel,  A. White,  C. F. Williams,  V. Vanovschi,  
 S. Yeganeh,  S. R. Yost,  Z.-Q. You,  I. Y. Zhang,  X. Zhang,  Y. Zhao,  
 B. R. Brooks,  G. K. L. Chan,  D. M. Chipman,  C. J. Cramer,  
 W. A. Goddard III,  M. S. Gordon,  W. J. Hehre,  A. Klamt,  
 H. F. Schaefer III,  M. W. Schmidt,  C. D. Sherrill,  D. G. Truhlar,  
 A. Warshel,  X. Xu,  A. Aspuru-Guzik,  R. Baer,  A. T. Bell,  N. A. Besley,  
 J.-D. Chai,  A. Dreuw,  B. D. Dunietz,  T. R. Furlani,  S. R. Gwaltney,  
 C.-P. Hsu,  Y. Jung,  J. Kong,  D. S. Lambrecht,  W. Liang,  C. Ochsenfeld,  
 V. A. Rassolov,  L. V. Slipchenko,  J. E. Subotnik,  T. Van Voorhis,  
 J. M. Herbert,  A. I. Krylov,  P. M. W. Gill,  M. Head-Gordon

 Contributors to earlier versions of Q-Chem not listed above: 
 R. D. Adamson,  J. Baker,  E. F. C. Byrd,  A. K. Chakraborty,  C.-L. Cheng,  
 H. Dachsel,  R. J. Doerksen,  G. Hawkins,  A. Heyden,  S. Hirata,  
 G. Kedziora,  F. J. Keil,  C. Kelley,  P. P. Korambath,  W. Kurlancheek,  
 A. M. Lee,  M. S. Lee,  D. Liotard,  I. Lotan,  P. E. Maslen,  N. Nair,  
 D. Neuhauser,  R. Olson,  B. Peters,  J. Ritchie,  N. E. Schultz,  
 N. Shenvi,  A. C. Simmonett,  K. S. Thanthiriwatte,  Q. Wu,  W. Zhang

 Please cite Q-Chem as follows:
 Y. Shao et al., Mol. Phys. 113, 184-215 (2014)
 DOI: 10.1080/00268976.2014.952696

 Q-Chem 4.3.0 for Intel X86 EM64T Linux

 Parts of Q-Chem use Armadillo 4.550.3 (Singapore Sling Deluxe).
 http://arma.sourceforge.net/

 Q-Chem begins on Mon May 11 12:05:12 2015  

Host: copper
0

     Scratch files written to /home/eric/scratch/qchem/qchem5462//
 Apr3015 |home|eric|opt|apps|qchem|trunk_RNUM -1
Processing $rem in /home/eric/.qchemrc.
         symmetry = false
       sym_ignore = true
      cc_symmetry = false
  scf_convergence = 8
           thresh = 14
        varthresh = 0
           incdft = 0
          xc_grid = 000100000302 ! (100,302)
 integrals_buffer = 3000
       mem_static = 1000
        mem_total = 4000
        cc_memory = 13000
       ao2mo_disk = 4000
    n_frozen_core = fc
    molden_format = true
   scf_print_frgm = true
           chelpg = true

Checking the input file for inconsistencies...	...done.

--------------------------------------------------------------
User input:
--------------------------------------------------------------
$rem
 method = hf
 basis = sto-3g
 scf_convergence = 10
 thresh = 14
 scf_final_print = 3
 print_general_basis = true
 iprint = 1000
 symmetry = false
 sym_ignore = true
 ! save_ao_integrals = 1
 aoints_debug_print = 4
$end

$molecule
0 2
Li 0.0000 0.0000 0.0000
$end
--------------------------------------------------------------
 ----------------------------------------------------------------
             Standard Nuclear Orientation (Angstroms)
    I     Atom           X                Y                Z
 ----------------------------------------------------------------
    1      Li      0.0000000000     0.0000000000     0.0000000000
 ----------------------------------------------------------------
 Nuclear Repulsion Energy =     0.0000000000 hartrees
 There are        2 alpha and        1 beta electrons
 Requested basis set is STO-3G
Basis set in general basis input format:
-----------------------------------------------------------------------
$basis
Li   0
S    3    1.000000
   1.61195750E+01    1.54328970E-01 
   2.93620070E+00    5.35328140E-01 
   7.94650500E-01    4.44634540E-01 
SP   3    1.000000
   6.36289700E-01   -9.99672300E-02   1.55916270E-01 
   1.47860100E-01    3.99512830E-01   6.07683720E-01 
   4.80887000E-02    7.00115470E-01   3.91957390E-01 
****
$end
-----------------------------------------------------------------------
 There are 2 shells and 5 basis functions

Total QAlloc Memory Limit   4000 MB
Mega-Array Size       978 MB
MEM_STATIC part      1000 MB

 Q-Chem warning in module 0, line   71:

 AOINTS_DEBUG_PRINT=4

  *** Integrals not dumped for new Path2.  For full
  *** integral dump, compile with -DNO_NEW_PATH2 
 
 AOInts used (LenV =124899892) to compute I* values
 ( 1, 1| 1, 1) =    6.7215806781
 ( 2, 1| 2, 1) =    0.0499414572
 ( 2, 1| 3, 1) =    0.0000000000
 ( 2, 1| 4, 1) =    0.0000000000
 ( 2, 1| 5, 1) =    0.0000000000
 ( 3, 1| 2, 1) =    0.0000000000
 ( 3, 1| 3, 1) =    0.0089813193
 ( 3, 1| 4, 1) =    0.0000000000
 ( 3, 1| 5, 1) =    0.0000000000
 ( 4, 1| 2, 1) =    0.0000000000
 ( 4, 1| 3, 1) =    0.0000000000
 ( 4, 1| 4, 1) =    0.0089813193
 ( 4, 1| 5, 1) =    0.0000000000
 ( 5, 1| 2, 1) =    0.0000000000
 ( 5, 1| 3, 1) =    0.0000000000
 ( 5, 1| 4, 1) =    0.0000000000
 ( 5, 1| 5, 1) =    0.0089813193
 ( 2, 2| 2, 2) =    1.1622491800
 ( 2, 2| 2, 3) =    0.0000000000
 ( 2, 2| 2, 4) =    0.0000000000
 ( 2, 2| 2, 5) =    0.0000000000
 ( 2, 2| 3, 2) =    0.0000000000
 ( 2, 2| 3, 3) =    1.1619879024
 ( 2, 2| 3, 4) =    0.0000000000
 ( 2, 2| 3, 5) =    0.0000000000
 ( 2, 2| 4, 2) =    0.0000000000
 ( 2, 2| 4, 3) =    0.0000000000
 ( 2, 2| 4, 4) =    1.1619879024
 ( 2, 2| 4, 5) =    0.0000000000
 ( 2, 2| 5, 2) =    0.0000000000
 ( 2, 2| 5, 3) =    0.0000000000
 ( 2, 2| 5, 4) =    0.0000000000
 ( 2, 2| 5, 5) =    1.1619879024
 ( 2, 3| 2, 2) =    0.0000000000
 ( 2, 3| 2, 3) =    0.2567373143
 ( 2, 3| 2, 4) =    0.0000000000
 ( 2, 3| 2, 5) =    0.0000000000
 ( 2, 3| 3, 2) =    0.2567373143
 ( 2, 3| 3, 3) =    0.0000000000
 ( 2, 3| 3, 4) =    0.0000000000
 ( 2, 3| 3, 5) =    0.0000000000
 ( 2, 3| 4, 2) =    0.0000000000
 ( 2, 3| 4, 3) =    0.0000000000
 ( 2, 3| 4, 4) =    0.0000000000
 ( 2, 3| 4, 5) =    0.0000000000
 ( 2, 3| 5, 2) =    0.0000000000
 ( 2, 3| 5, 3) =    0.0000000000
 ( 2, 3| 5, 4) =    0.0000000000
 ( 2, 3| 5, 5) =    0.0000000000
 ( 2, 4| 2, 2) =    0.0000000000
 ( 2, 4| 2, 3) =    0.0000000000
 ( 2, 4| 2, 4) =    0.2567373143
 ( 2, 4| 2, 5) =    0.0000000000
 ( 2, 4| 3, 2) =    0.0000000000
 ( 2, 4| 3, 3) =    0.0000000000
 ( 2, 4| 3, 4) =    0.0000000000
 ( 2, 4| 3, 5) =    0.0000000000
 ( 2, 4| 4, 2) =    0.2567373143
 ( 2, 4| 4, 3) =    0.0000000000
 ( 2, 4| 4, 4) =    0.0000000000
 ( 2, 4| 4, 5) =    0.0000000000
 ( 2, 4| 5, 2) =    0.0000000000
 ( 2, 4| 5, 3) =    0.0000000000
 ( 2, 4| 5, 4) =    0.0000000000
 ( 2, 4| 5, 5) =    0.0000000000
 ( 2, 5| 2, 2) =    0.0000000000
 ( 2, 5| 2, 3) =    0.0000000000
 ( 2, 5| 2, 4) =    0.0000000000
 ( 2, 5| 2, 5) =    0.2567373143
 ( 2, 5| 3, 2) =    0.0000000000
 ( 2, 5| 3, 3) =    0.0000000000
 ( 2, 5| 3, 4) =    0.0000000000
 ( 2, 5| 3, 5) =    0.0000000000
 ( 2, 5| 4, 2) =    0.0000000000
 ( 2, 5| 4, 3) =    0.0000000000
 ( 2, 5| 4, 4) =    0.0000000000
 ( 2, 5| 4, 5) =    0.0000000000
 ( 2, 5| 5, 2) =    0.2567373143
 ( 2, 5| 5, 3) =    0.0000000000
 ( 2, 5| 5, 4) =    0.0000000000
 ( 2, 5| 5, 5) =    0.0000000000
 ( 3, 2| 2, 2) =    0.0000000000
 ( 3, 2| 2, 3) =    0.2567373143
 ( 3, 2| 2, 4) =    0.0000000000
 ( 3, 2| 2, 5) =    0.0000000000
 ( 3, 2| 3, 2) =    0.2567373143
 ( 3, 2| 3, 3) =    0.0000000000
 ( 3, 2| 3, 4) =    0.0000000000
 ( 3, 2| 3, 5) =    0.0000000000
 ( 3, 2| 4, 2) =    0.0000000000
 ( 3, 2| 4, 3) =    0.0000000000
 ( 3, 2| 4, 4) =    0.0000000000
 ( 3, 2| 4, 5) =    0.0000000000
 ( 3, 2| 5, 2) =    0.0000000000
 ( 3, 2| 5, 3) =    0.0000000000
 ( 3, 2| 5, 4) =    0.0000000000
 ( 3, 2| 5, 5) =    0.0000000000
 ( 3, 3| 2, 2) =    1.1619879024
 ( 3, 3| 2, 3) =    0.0000000000
 ( 3, 3| 2, 4) =    0.0000000000
 ( 3, 3| 2, 5) =    0.0000000000
 ( 3, 3| 3, 2) =    0.0000000000
 ( 3, 3| 3, 3) =    1.2517820446
 ( 3, 3| 3, 4) =    0.0000000000
 ( 3, 3| 3, 5) =    0.0000000000
 ( 3, 3| 4, 2) =    0.0000000000
 ( 3, 3| 4, 3) =    0.0000000000
 ( 3, 3| 4, 4) =    1.1168289285
 ( 3, 3| 4, 5) =    0.0000000000
 ( 3, 3| 5, 2) =    0.0000000000
 ( 3, 3| 5, 3) =    0.0000000000
 ( 3, 3| 5, 4) =    0.0000000000
 ( 3, 3| 5, 5) =    1.1168289285
 ( 3, 4| 2, 2) =    0.0000000000
 ( 3, 4| 2, 3) =    0.0000000000
 ( 3, 4| 2, 4) =    0.0000000000
 ( 3, 4| 2, 5) =    0.0000000000
 ( 3, 4| 3, 2) =    0.0000000000
 ( 3, 4| 3, 3) =    0.0000000000
 ( 3, 4| 3, 4) =    0.0674765581
 ( 3, 4| 3, 5) =    0.0000000000
 ( 3, 4| 4, 2) =    0.0000000000
 ( 3, 4| 4, 3) =    0.0674765581
 ( 3, 4| 4, 4) =    0.0000000000
 ( 3, 4| 4, 5) =    0.0000000000
 ( 3, 4| 5, 2) =    0.0000000000
 ( 3, 4| 5, 3) =    0.0000000000
 ( 3, 4| 5, 4) =    0.0000000000
 ( 3, 4| 5, 5) =    0.0000000000
 ( 3, 5| 2, 2) =    0.0000000000
 ( 3, 5| 2, 3) =    0.0000000000
 ( 3, 5| 2, 4) =    0.0000000000
 ( 3, 5| 2, 5) =    0.0000000000
 ( 3, 5| 3, 2) =    0.0000000000
 ( 3, 5| 3, 3) =    0.0000000000
 ( 3, 5| 3, 4) =    0.0000000000
 ( 3, 5| 3, 5) =    0.0674765581
 ( 3, 5| 4, 2) =    0.0000000000
 ( 3, 5| 4, 3) =    0.0000000000
 ( 3, 5| 4, 4) =    0.0000000000
 ( 3, 5| 4, 5) =    0.0000000000
 ( 3, 5| 5, 2) =    0.0000000000
 ( 3, 5| 5, 3) =    0.0674765581
 ( 3, 5| 5, 4) =    0.0000000000
 ( 3, 5| 5, 5) =    0.0000000000
 ( 4, 2| 2, 2) =    0.0000000000
 ( 4, 2| 2, 3) =    0.0000000000
 ( 4, 2| 2, 4) =    0.2567373143
 ( 4, 2| 2, 5) =    0.0000000000
 ( 4, 2| 3, 2) =    0.0000000000
 ( 4, 2| 3, 3) =    0.0000000000
 ( 4, 2| 3, 4) =    0.0000000000
 ( 4, 2| 3, 5) =    0.0000000000
 ( 4, 2| 4, 2) =    0.2567373143
 ( 4, 2| 4, 3) =    0.0000000000
 ( 4, 2| 4, 4) =    0.0000000000
 ( 4, 2| 4, 5) =    0.0000000000
 ( 4, 2| 5, 2) =    0.0000000000
 ( 4, 2| 5, 3) =    0.0000000000
 ( 4, 2| 5, 4) =    0.0000000000
 ( 4, 2| 5, 5) =    0.0000000000
 ( 4, 3| 2, 2) =    0.0000000000
 ( 4, 3| 2, 3) =    0.0000000000
 ( 4, 3| 2, 4) =    0.0000000000
 ( 4, 3| 2, 5) =    0.0000000000
 ( 4, 3| 3, 2) =    0.0000000000
 ( 4, 3| 3, 3) =    0.0000000000
 ( 4, 3| 3, 4) =    0.0674765581
 ( 4, 3| 3, 5) =    0.0000000000
 ( 4, 3| 4, 2) =    0.0000000000
 ( 4, 3| 4, 3) =    0.0674765581
 ( 4, 3| 4, 4) =    0.0000000000
 ( 4, 3| 4, 5) =    0.0000000000
 ( 4, 3| 5, 2) =    0.0000000000
 ( 4, 3| 5, 3) =    0.0000000000
 ( 4, 3| 5, 4) =    0.0000000000
 ( 4, 3| 5, 5) =    0.0000000000
 ( 4, 4| 2, 2) =    1.1619879024
 ( 4, 4| 2, 3) =    0.0000000000
 ( 4, 4| 2, 4) =    0.0000000000
 ( 4, 4| 2, 5) =    0.0000000000
 ( 4, 4| 3, 2) =    0.0000000000
 ( 4, 4| 3, 3) =    1.1168289285
 ( 4, 4| 3, 4) =    0.0000000000
 ( 4, 4| 3, 5) =    0.0000000000
 ( 4, 4| 4, 2) =    0.0000000000
 ( 4, 4| 4, 3) =    0.0000000000
 ( 4, 4| 4, 4) =    1.2517820446
 ( 4, 4| 4, 5) =    0.0000000000
 ( 4, 4| 5, 2) =    0.0000000000
 ( 4, 4| 5, 3) =    0.0000000000
 ( 4, 4| 5, 4) =    0.0000000000
 ( 4, 4| 5, 5) =    1.1168289285
 ( 4, 5| 2, 2) =    0.0000000000
 ( 4, 5| 2, 3) =    0.0000000000
 ( 4, 5| 2, 4) =    0.0000000000
 ( 4, 5| 2, 5) =    0.0000000000
 ( 4, 5| 3, 2) =    0.0000000000
 ( 4, 5| 3, 3) =    0.0000000000
 ( 4, 5| 3, 4) =    0.0000000000
 ( 4, 5| 3, 5) =    0.0000000000
 ( 4, 5| 4, 2) =    0.0000000000
 ( 4, 5| 4, 3) =    0.0000000000
 ( 4, 5| 4, 4) =    0.0000000000
 ( 4, 5| 4, 5) =    0.0674765581
 ( 4, 5| 5, 2) =    0.0000000000
 ( 4, 5| 5, 3) =    0.0000000000
 ( 4, 5| 5, 4) =    0.0674765581
 ( 4, 5| 5, 5) =    0.0000000000
 ( 5, 2| 2, 2) =    0.0000000000
 ( 5, 2| 2, 3) =    0.0000000000
 ( 5, 2| 2, 4) =    0.0000000000
 ( 5, 2| 2, 5) =    0.2567373143
 ( 5, 2| 3, 2) =    0.0000000000
 ( 5, 2| 3, 3) =    0.0000000000
 ( 5, 2| 3, 4) =    0.0000000000
 ( 5, 2| 3, 5) =    0.0000000000
 ( 5, 2| 4, 2) =    0.0000000000
 ( 5, 2| 4, 3) =    0.0000000000
 ( 5, 2| 4, 4) =    0.0000000000
 ( 5, 2| 4, 5) =    0.0000000000
 ( 5, 2| 5, 2) =    0.2567373143
 ( 5, 2| 5, 3) =    0.0000000000
 ( 5, 2| 5, 4) =    0.0000000000
 ( 5, 2| 5, 5) =    0.0000000000
 ( 5, 3| 2, 2) =    0.0000000000
 ( 5, 3| 2, 3) =    0.0000000000
 ( 5, 3| 2, 4) =    0.0000000000
 ( 5, 3| 2, 5) =    0.0000000000
 ( 5, 3| 3, 2) =    0.0000000000
 ( 5, 3| 3, 3) =    0.0000000000
 ( 5, 3| 3, 4) =    0.0000000000
 ( 5, 3| 3, 5) =    0.0674765581
 ( 5, 3| 4, 2) =    0.0000000000
 ( 5, 3| 4, 3) =    0.0000000000
 ( 5, 3| 4, 4) =    0.0000000000
 ( 5, 3| 4, 5) =    0.0000000000
 ( 5, 3| 5, 2) =    0.0000000000
 ( 5, 3| 5, 3) =    0.0674765581
 ( 5, 3| 5, 4) =    0.0000000000
 ( 5, 3| 5, 5) =    0.0000000000
 ( 5, 4| 2, 2) =    0.0000000000
 ( 5, 4| 2, 3) =    0.0000000000
 ( 5, 4| 2, 4) =    0.0000000000
 ( 5, 4| 2, 5) =    0.0000000000
 ( 5, 4| 3, 2) =    0.0000000000
 ( 5, 4| 3, 3) =    0.0000000000
 ( 5, 4| 3, 4) =    0.0000000000
 ( 5, 4| 3, 5) =    0.0000000000
 ( 5, 4| 4, 2) =    0.0000000000
 ( 5, 4| 4, 3) =    0.0000000000
 ( 5, 4| 4, 4) =    0.0000000000
 ( 5, 4| 4, 5) =    0.0674765581
 ( 5, 4| 5, 2) =    0.0000000000
 ( 5, 4| 5, 3) =    0.0000000000
 ( 5, 4| 5, 4) =    0.0674765581
 ( 5, 4| 5, 5) =    0.0000000000
 ( 5, 5| 2, 2) =    1.1619879024
 ( 5, 5| 2, 3) =    0.0000000000
 ( 5, 5| 2, 4) =    0.0000000000
 ( 5, 5| 2, 5) =    0.0000000000
 ( 5, 5| 3, 2) =    0.0000000000
 ( 5, 5| 3, 3) =    1.1168289285
 ( 5, 5| 3, 4) =    0.0000000000
 ( 5, 5| 3, 5) =    0.0000000000
 ( 5, 5| 4, 2) =    0.0000000000
 ( 5, 5| 4, 3) =    0.0000000000
 ( 5, 5| 4, 4) =    1.1168289285
 ( 5, 5| 4, 5) =    0.0000000000
 ( 5, 5| 5, 2) =    0.0000000000
 ( 5, 5| 5, 3) =    0.0000000000
 ( 5, 5| 5, 4) =    0.0000000000
 ( 5, 5| 5, 5) =    1.2517820446
 A cutoff of  1.0D-14 yielded      3 shell pairs
 There are        21 function pairs
 
 -------------------------------------------------------
 OpenMP Integral Computing Module                       
 Release: version 1.0, May 2013, Q-Chem Inc. Pittsburgh 
 -------------------------------------------------------
 Integral Job Info:
 Integral job number is                      11
 Integral operator is                         1
 short-range coefficients               -999999
 long-range coefficients                -999999
 Omega coefficients                           0
 if combine SR and LR in K              -999999
 Integral screening is                        0
 Integral computing path is                   2
 max size of driver memory is            800000
 size of driver memory is                 45569
 size of scratch memory is               945100
 max col of scratch BK array                289
 max len of scratch array in speh3           22
 max len of scratch index in speh4            8
 max int batch size is                      520
 min int batch size is                       52
 fixed nKL is                                52
 max L of basis functions is                  1
 order of int derivative is                   0
 number of shells is                          2
 number of basis is                           5
 number of cartesian basis is                 5
 number of contracted shell pairs             3
 number of primitive shell pairs             27
 maxK2 (contraction) of shell pair            9
 max number of K2 of shell pair               1
 max number of CS2 of shell pair              1
 max number of PS2 of shell pair              9
 mem total for path MDJ                    6006
 -------------------------------------------------------
 Smallest overlap matrix eigenvalue = 7.59E-01

  Scale SEOQF with 1.000000e+00/1.000000e+00/1.000000e+00

 Standard Electronic Orientation quadrupole field applied
 Guess from superposition of atomic densities
 Warning:  Energy on first SCF cycle will be non-variational
 An unrestricted Hartree-Fock SCF calculation will be
 performed using Pulay DIIS extrapolation
 SCF converges when DIIS error is below 1.0E-10

 Q-Chem warning in module 0, line   71:

 AOINTS_DEBUG_PRINT=4

  *** Integrals not dumped for new Path2.  For full
  *** integral dump, compile with -DNO_NEW_PATH2 
 
 AOInts used (LenV =124999998) to compute the J vector and K matrices
 ( 1, 1| 1, 1) =    1.6803951695
 ( 1, 1| 2, 1) =    0.2654203646
 ( 1, 1| 3, 1) =    0.0000000000
 ( 1, 1| 4, 1) =    0.0000000000
 ( 1, 1| 5, 1) =    0.0000000000
 ( 1, 1| 2, 2) =    0.3977268611
 ( 1, 1| 2, 3) =    0.0000000000
 ( 1, 1| 2, 4) =    0.0000000000
 ( 1, 1| 2, 5) =    0.0000000000
 ( 1, 1| 3, 2) =    0.0000000000
 ( 1, 1| 3, 3) =    0.3966396423
 ( 1, 1| 3, 4) =    0.0000000000
 ( 1, 1| 3, 5) =    0.0000000000
 ( 1, 1| 4, 2) =    0.0000000000
 ( 1, 1| 4, 3) =    0.0000000000
 ( 1, 1| 4, 4) =    0.3966396423
 ( 1, 1| 4, 5) =    0.0000000000
 ( 1, 1| 5, 2) =    0.0000000000
 ( 1, 1| 5, 3) =    0.0000000000
 ( 1, 1| 5, 4) =    0.0000000000
 ( 1, 1| 5, 5) =    0.3966396423
 ( 2, 1| 2, 1) =    0.0499414572
 ( 2, 1| 3, 1) =    0.0000000000
 ( 2, 1| 4, 1) =    0.0000000000
 ( 2, 1| 5, 1) =    0.0000000000
 ( 3, 1| 2, 1) =    0.0000000000
 ( 3, 1| 3, 1) =    0.0089813193
 ( 3, 1| 4, 1) =    0.0000000000
 ( 3, 1| 5, 1) =    0.0000000000
 ( 4, 1| 2, 1) =    0.0000000000
 ( 4, 1| 3, 1) =    0.0000000000
 ( 4, 1| 4, 1) =    0.0089813193
 ( 4, 1| 5, 1) =    0.0000000000
 ( 5, 1| 2, 1) =    0.0000000000
 ( 5, 1| 3, 1) =    0.0000000000
 ( 5, 1| 4, 1) =    0.0000000000
 ( 5, 1| 5, 1) =    0.0089813193
 ( 2, 1| 2, 2) =    0.0928601436
 ( 2, 1| 2, 3) =    0.0000000000
 ( 2, 1| 2, 4) =    0.0000000000
 ( 2, 1| 2, 5) =    0.0000000000
 ( 2, 1| 3, 2) =    0.0000000000
 ( 2, 1| 3, 3) =    0.0928803968
 ( 2, 1| 3, 4) =    0.0000000000
 ( 2, 1| 3, 5) =    0.0000000000
 ( 2, 1| 4, 2) =    0.0000000000
 ( 2, 1| 4, 3) =    0.0000000000
 ( 2, 1| 4, 4) =    0.0928803968
 ( 2, 1| 4, 5) =    0.0000000000
 ( 2, 1| 5, 2) =    0.0000000000
 ( 2, 1| 5, 3) =    0.0000000000
 ( 2, 1| 5, 4) =    0.0000000000
 ( 2, 1| 5, 5) =    0.0928803968
 ( 3, 1| 2, 2) =    0.0000000000
 ( 3, 1| 2, 3) =    0.0137882689
 ( 3, 1| 2, 4) =    0.0000000000
 ( 3, 1| 2, 5) =    0.0000000000
 ( 3, 1| 3, 2) =    0.0137882689
 ( 3, 1| 3, 3) =    0.0000000000
 ( 3, 1| 3, 4) =    0.0000000000
 ( 3, 1| 3, 5) =    0.0000000000
 ( 3, 1| 4, 2) =    0.0000000000
 ( 3, 1| 4, 3) =    0.0000000000
 ( 3, 1| 4, 4) =    0.0000000000
 ( 3, 1| 4, 5) =    0.0000000000
 ( 3, 1| 5, 2) =    0.0000000000
 ( 3, 1| 5, 3) =    0.0000000000
 ( 3, 1| 5, 4) =    0.0000000000
 ( 3, 1| 5, 5) =    0.0000000000
 ( 4, 1| 2, 2) =    0.0000000000
 ( 4, 1| 2, 3) =    0.0000000000
 ( 4, 1| 2, 4) =    0.0137882689
 ( 4, 1| 2, 5) =    0.0000000000
 ( 4, 1| 3, 2) =    0.0000000000
 ( 4, 1| 3, 3) =    0.0000000000
 ( 4, 1| 3, 4) =    0.0000000000
 ( 4, 1| 3, 5) =    0.0000000000
 ( 4, 1| 4, 2) =    0.0137882689
 ( 4, 1| 4, 3) =    0.0000000000
 ( 4, 1| 4, 4) =    0.0000000000
 ( 4, 1| 4, 5) =    0.0000000000
 ( 4, 1| 5, 2) =    0.0000000000
 ( 4, 1| 5, 3) =    0.0000000000
 ( 4, 1| 5, 4) =    0.0000000000
 ( 4, 1| 5, 5) =    0.0000000000
 ( 5, 1| 2, 2) =    0.0000000000
 ( 5, 1| 2, 3) =    0.0000000000
 ( 5, 1| 2, 4) =    0.0000000000
 ( 5, 1| 2, 5) =    0.0137882689
 ( 5, 1| 3, 2) =    0.0000000000
 ( 5, 1| 3, 3) =    0.0000000000
 ( 5, 1| 3, 4) =    0.0000000000
 ( 5, 1| 3, 5) =    0.0000000000
 ( 5, 1| 4, 2) =    0.0000000000
 ( 5, 1| 4, 3) =    0.0000000000
 ( 5, 1| 4, 4) =    0.0000000000
 ( 5, 1| 4, 5) =    0.0000000000
 ( 5, 1| 5, 2) =    0.0137882689
 ( 5, 1| 5, 3) =    0.0000000000
 ( 5, 1| 5, 4) =    0.0000000000
 ( 5, 1| 5, 5) =    0.0000000000
 ( 2, 2| 2, 2) =    0.2905622950
 ( 2, 2| 2, 3) =    0.0000000000
 ( 2, 2| 2, 4) =    0.0000000000
 ( 2, 2| 2, 5) =    0.0000000000
 ( 2, 2| 3, 2) =    0.0000000000
 ( 2, 2| 3, 3) =    0.2904969756
 ( 2, 2| 3, 4) =    0.0000000000
 ( 2, 2| 3, 5) =    0.0000000000
 ( 2, 2| 4, 2) =    0.0000000000
 ( 2, 2| 4, 3) =    0.0000000000
 ( 2, 2| 4, 4) =    0.2904969756
 ( 2, 2| 4, 5) =    0.0000000000
 ( 2, 2| 5, 2) =    0.0000000000
 ( 2, 2| 5, 3) =    0.0000000000
 ( 2, 2| 5, 4) =    0.0000000000
 ( 2, 2| 5, 5) =    0.2904969756
 ( 2, 3| 2, 2) =    0.0000000000
 ( 2, 3| 2, 3) =    0.0641843286
 ( 2, 3| 2, 4) =    0.0000000000
 ( 2, 3| 2, 5) =    0.0000000000
 ( 2, 3| 3, 2) =    0.0641843286
 ( 2, 3| 3, 3) =    0.0000000000
 ( 2, 3| 3, 4) =    0.0000000000
 ( 2, 3| 3, 5) =    0.0000000000
 ( 2, 3| 4, 2) =    0.0000000000
 ( 2, 3| 4, 3) =    0.0000000000
 ( 2, 3| 4, 4) =    0.0000000000
 ( 2, 3| 4, 5) =    0.0000000000
 ( 2, 3| 5, 2) =    0.0000000000
 ( 2, 3| 5, 3) =    0.0000000000
 ( 2, 3| 5, 4) =    0.0000000000
 ( 2, 3| 5, 5) =    0.0000000000
 ( 2, 4| 2, 2) =    0.0000000000
 ( 2, 4| 2, 3) =    0.0000000000
 ( 2, 4| 2, 4) =    0.0641843286
 ( 2, 4| 2, 5) =    0.0000000000
 ( 2, 4| 3, 2) =    0.0000000000
 ( 2, 4| 3, 3) =    0.0000000000
 ( 2, 4| 3, 4) =    0.0000000000
 ( 2, 4| 3, 5) =    0.0000000000
 ( 2, 4| 4, 2) =    0.0641843286
 ( 2, 4| 4, 3) =    0.0000000000
 ( 2, 4| 4, 4) =    0.0000000000
 ( 2, 4| 4, 5) =    0.0000000000
 ( 2, 4| 5, 2) =    0.0000000000
 ( 2, 4| 5, 3) =    0.0000000000
 ( 2, 4| 5, 4) =    0.0000000000
 ( 2, 4| 5, 5) =    0.0000000000
 ( 2, 5| 2, 2) =    0.0000000000
 ( 2, 5| 2, 3) =    0.0000000000
 ( 2, 5| 2, 4) =    0.0000000000
 ( 2, 5| 2, 5) =    0.0641843286
 ( 2, 5| 3, 2) =    0.0000000000
 ( 2, 5| 3, 3) =    0.0000000000
 ( 2, 5| 3, 4) =    0.0000000000
 ( 2, 5| 3, 5) =    0.0000000000
 ( 2, 5| 4, 2) =    0.0000000000
 ( 2, 5| 4, 3) =    0.0000000000
 ( 2, 5| 4, 4) =    0.0000000000
 ( 2, 5| 4, 5) =    0.0000000000
 ( 2, 5| 5, 2) =    0.0641843286
 ( 2, 5| 5, 3) =    0.0000000000
 ( 2, 5| 5, 4) =    0.0000000000
 ( 2, 5| 5, 5) =    0.0000000000
 ( 3, 2| 2, 2) =    0.0000000000
 ( 3, 2| 2, 3) =    0.0641843286
 ( 3, 2| 2, 4) =    0.0000000000
 ( 3, 2| 2, 5) =    0.0000000000
 ( 3, 2| 3, 2) =    0.0641843286
 ( 3, 2| 3, 3) =    0.0000000000
 ( 3, 2| 3, 4) =    0.0000000000
 ( 3, 2| 3, 5) =    0.0000000000
 ( 3, 2| 4, 2) =    0.0000000000
 ( 3, 2| 4, 3) =    0.0000000000
 ( 3, 2| 4, 4) =    0.0000000000
 ( 3, 2| 4, 5) =    0.0000000000
 ( 3, 2| 5, 2) =    0.0000000000
 ( 3, 2| 5, 3) =    0.0000000000
 ( 3, 2| 5, 4) =    0.0000000000
 ( 3, 2| 5, 5) =    0.0000000000
 ( 3, 3| 2, 2) =    0.2904969756
 ( 3, 3| 2, 3) =    0.0000000000
 ( 3, 3| 2, 4) =    0.0000000000
 ( 3, 3| 2, 5) =    0.0000000000
 ( 3, 3| 3, 2) =    0.0000000000
 ( 3, 3| 3, 3) =    0.3129455112
 ( 3, 3| 3, 4) =    0.0000000000
 ( 3, 3| 3, 5) =    0.0000000000
 ( 3, 3| 4, 2) =    0.0000000000
 ( 3, 3| 4, 3) =    0.0000000000
 ( 3, 3| 4, 4) =    0.2792072321
 ( 3, 3| 4, 5) =    0.0000000000
 ( 3, 3| 5, 2) =    0.0000000000
 ( 3, 3| 5, 3) =    0.0000000000
 ( 3, 3| 5, 4) =    0.0000000000
 ( 3, 3| 5, 5) =    0.2792072321
 ( 3, 4| 2, 2) =    0.0000000000
 ( 3, 4| 2, 3) =    0.0000000000
 ( 3, 4| 2, 4) =    0.0000000000
 ( 3, 4| 2, 5) =    0.0000000000
 ( 3, 4| 3, 2) =    0.0000000000
 ( 3, 4| 3, 3) =    0.0000000000
 ( 3, 4| 3, 4) =    0.0168691395
 ( 3, 4| 3, 5) =    0.0000000000
 ( 3, 4| 4, 2) =    0.0000000000
 ( 3, 4| 4, 3) =    0.0168691395
 ( 3, 4| 4, 4) =    0.0000000000
 ( 3, 4| 4, 5) =    0.0000000000
 ( 3, 4| 5, 2) =    0.0000000000
 ( 3, 4| 5, 3) =    0.0000000000
 ( 3, 4| 5, 4) =    0.0000000000
 ( 3, 4| 5, 5) =    0.0000000000
 ( 3, 5| 2, 2) =    0.0000000000
 ( 3, 5| 2, 3) =    0.0000000000
 ( 3, 5| 2, 4) =    0.0000000000
 ( 3, 5| 2, 5) =    0.0000000000
 ( 3, 5| 3, 2) =    0.0000000000
 ( 3, 5| 3, 3) =    0.0000000000
 ( 3, 5| 3, 4) =    0.0000000000
 ( 3, 5| 3, 5) =    0.0168691395
 ( 3, 5| 4, 2) =    0.0000000000
 ( 3, 5| 4, 3) =    0.0000000000
 ( 3, 5| 4, 4) =    0.0000000000
 ( 3, 5| 4, 5) =    0.0000000000
 ( 3, 5| 5, 2) =    0.0000000000
 ( 3, 5| 5, 3) =    0.0168691395
 ( 3, 5| 5, 4) =    0.0000000000
 ( 3, 5| 5, 5) =    0.0000000000
 ( 4, 2| 2, 2) =    0.0000000000
 ( 4, 2| 2, 3) =    0.0000000000
 ( 4, 2| 2, 4) =    0.0641843286
 ( 4, 2| 2, 5) =    0.0000000000
 ( 4, 2| 3, 2) =    0.0000000000
 ( 4, 2| 3, 3) =    0.0000000000
 ( 4, 2| 3, 4) =    0.0000000000
 ( 4, 2| 3, 5) =    0.0000000000
 ( 4, 2| 4, 2) =    0.0641843286
 ( 4, 2| 4, 3) =    0.0000000000
 ( 4, 2| 4, 4) =    0.0000000000
 ( 4, 2| 4, 5) =    0.0000000000
 ( 4, 2| 5, 2) =    0.0000000000
 ( 4, 2| 5, 3) =    0.0000000000
 ( 4, 2| 5, 4) =    0.0000000000
 ( 4, 2| 5, 5) =    0.0000000000
 ( 4, 3| 2, 2) =    0.0000000000
 ( 4, 3| 2, 3) =    0.0000000000
 ( 4, 3| 2, 4) =    0.0000000000
 ( 4, 3| 2, 5) =    0.0000000000
 ( 4, 3| 3, 2) =    0.0000000000
 ( 4, 3| 3, 3) =    0.0000000000
 ( 4, 3| 3, 4) =    0.0168691395
 ( 4, 3| 3, 5) =    0.0000000000
 ( 4, 3| 4, 2) =    0.0000000000
 ( 4, 3| 4, 3) =    0.0168691395
 ( 4, 3| 4, 4) =    0.0000000000
 ( 4, 3| 4, 5) =    0.0000000000
 ( 4, 3| 5, 2) =    0.0000000000
 ( 4, 3| 5, 3) =    0.0000000000
 ( 4, 3| 5, 4) =    0.0000000000
 ( 4, 3| 5, 5) =    0.0000000000
 ( 4, 4| 2, 2) =    0.2904969756
 ( 4, 4| 2, 3) =    0.0000000000
 ( 4, 4| 2, 4) =    0.0000000000
 ( 4, 4| 2, 5) =    0.0000000000
 ( 4, 4| 3, 2) =    0.0000000000
 ( 4, 4| 3, 3) =    0.2792072321
 ( 4, 4| 3, 4) =    0.0000000000
 ( 4, 4| 3, 5) =    0.0000000000
 ( 4, 4| 4, 2) =    0.0000000000
 ( 4, 4| 4, 3) =    0.0000000000
 ( 4, 4| 4, 4) =    0.3129455112
 ( 4, 4| 4, 5) =    0.0000000000
 ( 4, 4| 5, 2) =    0.0000000000
 ( 4, 4| 5, 3) =    0.0000000000
 ( 4, 4| 5, 4) =    0.0000000000
 ( 4, 4| 5, 5) =    0.2792072321
 ( 4, 5| 2, 2) =    0.0000000000
 ( 4, 5| 2, 3) =    0.0000000000
 ( 4, 5| 2, 4) =    0.0000000000
 ( 4, 5| 2, 5) =    0.0000000000
 ( 4, 5| 3, 2) =    0.0000000000
 ( 4, 5| 3, 3) =    0.0000000000
 ( 4, 5| 3, 4) =    0.0000000000
 ( 4, 5| 3, 5) =    0.0000000000
 ( 4, 5| 4, 2) =    0.0000000000
 ( 4, 5| 4, 3) =    0.0000000000
 ( 4, 5| 4, 4) =    0.0000000000
 ( 4, 5| 4, 5) =    0.0168691395
 ( 4, 5| 5, 2) =    0.0000000000
 ( 4, 5| 5, 3) =    0.0000000000
 ( 4, 5| 5, 4) =    0.0168691395
 ( 4, 5| 5, 5) =    0.0000000000
 ( 5, 2| 2, 2) =    0.0000000000
 ( 5, 2| 2, 3) =    0.0000000000
 ( 5, 2| 2, 4) =    0.0000000000
 ( 5, 2| 2, 5) =    0.0641843286
 ( 5, 2| 3, 2) =    0.0000000000
 ( 5, 2| 3, 3) =    0.0000000000
 ( 5, 2| 3, 4) =    0.0000000000
 ( 5, 2| 3, 5) =    0.0000000000
 ( 5, 2| 4, 2) =    0.0000000000
 ( 5, 2| 4, 3) =    0.0000000000
 ( 5, 2| 4, 4) =    0.0000000000
 ( 5, 2| 4, 5) =    0.0000000000
 ( 5, 2| 5, 2) =    0.0641843286
 ( 5, 2| 5, 3) =    0.0000000000
 ( 5, 2| 5, 4) =    0.0000000000
 ( 5, 2| 5, 5) =    0.0000000000
 ( 5, 3| 2, 2) =    0.0000000000
 ( 5, 3| 2, 3) =    0.0000000000
 ( 5, 3| 2, 4) =    0.0000000000
 ( 5, 3| 2, 5) =    0.0000000000
 ( 5, 3| 3, 2) =    0.0000000000
 ( 5, 3| 3, 3) =    0.0000000000
 ( 5, 3| 3, 4) =    0.0000000000
 ( 5, 3| 3, 5) =    0.0168691395
 ( 5, 3| 4, 2) =    0.0000000000
 ( 5, 3| 4, 3) =    0.0000000000
 ( 5, 3| 4, 4) =    0.0000000000
 ( 5, 3| 4, 5) =    0.0000000000
 ( 5, 3| 5, 2) =    0.0000000000
 ( 5, 3| 5, 3) =    0.0168691395
 ( 5, 3| 5, 4) =    0.0000000000
 ( 5, 3| 5, 5) =    0.0000000000
 ( 5, 4| 2, 2) =    0.0000000000
 ( 5, 4| 2, 3) =    0.0000000000
 ( 5, 4| 2, 4) =    0.0000000000
 ( 5, 4| 2, 5) =    0.0000000000
 ( 5, 4| 3, 2) =    0.0000000000
 ( 5, 4| 3, 3) =    0.0000000000
 ( 5, 4| 3, 4) =    0.0000000000
 ( 5, 4| 3, 5) =    0.0000000000
 ( 5, 4| 4, 2) =    0.0000000000
 ( 5, 4| 4, 3) =    0.0000000000
 ( 5, 4| 4, 4) =    0.0000000000
 ( 5, 4| 4, 5) =    0.0168691395
 ( 5, 4| 5, 2) =    0.0000000000
 ( 5, 4| 5, 3) =    0.0000000000
 ( 5, 4| 5, 4) =    0.0168691395
 ( 5, 4| 5, 5) =    0.0000000000
 ( 5, 5| 2, 2) =    0.2904969756
 ( 5, 5| 2, 3) =    0.0000000000
 ( 5, 5| 2, 4) =    0.0000000000
 ( 5, 5| 2, 5) =    0.0000000000
 ( 5, 5| 3, 2) =    0.0000000000
 ( 5, 5| 3, 3) =    0.2792072321
 ( 5, 5| 3, 4) =    0.0000000000
 ( 5, 5| 3, 5) =    0.0000000000
 ( 5, 5| 4, 2) =    0.0000000000
 ( 5, 5| 4, 3) =    0.0000000000
 ( 5, 5| 4, 4) =    0.2792072321
 ( 5, 5| 4, 5) =    0.0000000000
 ( 5, 5| 5, 2) =    0.0000000000
 ( 5, 5| 5, 3) =    0.0000000000
 ( 5, 5| 5, 4) =    0.0000000000
 ( 5, 5| 5, 5) =    0.3129455112
 ---------------------------------------
  Cycle       Energy         DIIS Error
 ---------------------------------------
    1      -7.2449197990      1.45E-03

 Q-Chem warning in module 0, line   71:

 AOINTS_DEBUG_PRINT=4

  *** Integrals not dumped for new Path2.  For full
  *** integral dump, compile with -DNO_NEW_PATH2 
 
 AOInts used (LenV =124999998) to compute the J vector and K matrices
 ( 1, 1| 1, 1) =    1.6803951695
 ( 1, 1| 2, 1) =    0.2654203646
 ( 1, 1| 3, 1) =    0.0000000000
 ( 1, 1| 4, 1) =    0.0000000000
 ( 1, 1| 5, 1) =    0.0000000000
 ( 1, 1| 2, 2) =    0.3977268611
 ( 1, 1| 2, 3) =    0.0000000000
 ( 1, 1| 2, 4) =    0.0000000000
 ( 1, 1| 2, 5) =    0.0000000000
 ( 1, 1| 3, 2) =    0.0000000000
 ( 1, 1| 3, 3) =    0.3966396423
 ( 1, 1| 3, 4) =    0.0000000000
 ( 1, 1| 3, 5) =    0.0000000000
 ( 1, 1| 4, 2) =    0.0000000000
 ( 1, 1| 4, 3) =    0.0000000000
 ( 1, 1| 4, 4) =    0.3966396423
 ( 1, 1| 4, 5) =    0.0000000000
 ( 1, 1| 5, 2) =    0.0000000000
 ( 1, 1| 5, 3) =    0.0000000000
 ( 1, 1| 5, 4) =    0.0000000000
 ( 1, 1| 5, 5) =    0.3966396423
 ( 2, 1| 2, 1) =    0.0499414572
 ( 2, 1| 3, 1) =    0.0000000000
 ( 2, 1| 4, 1) =    0.0000000000
 ( 2, 1| 5, 1) =    0.0000000000
 ( 3, 1| 2, 1) =    0.0000000000
 ( 3, 1| 3, 1) =    0.0089813193
 ( 3, 1| 4, 1) =    0.0000000000
 ( 3, 1| 5, 1) =    0.0000000000
 ( 4, 1| 2, 1) =    0.0000000000
 ( 4, 1| 3, 1) =    0.0000000000
 ( 4, 1| 4, 1) =    0.0089813193
 ( 4, 1| 5, 1) =    0.0000000000
 ( 5, 1| 2, 1) =    0.0000000000
 ( 5, 1| 3, 1) =    0.0000000000
 ( 5, 1| 4, 1) =    0.0000000000
 ( 5, 1| 5, 1) =    0.0089813193
 ( 2, 1| 2, 2) =    0.0928601436
 ( 2, 1| 2, 3) =    0.0000000000
 ( 2, 1| 2, 4) =    0.0000000000
 ( 2, 1| 2, 5) =    0.0000000000
 ( 2, 1| 3, 2) =    0.0000000000
 ( 2, 1| 3, 3) =    0.0928803968
 ( 2, 1| 3, 4) =    0.0000000000
 ( 2, 1| 3, 5) =    0.0000000000
 ( 2, 1| 4, 2) =    0.0000000000
 ( 2, 1| 4, 3) =    0.0000000000
 ( 2, 1| 4, 4) =    0.0928803968
 ( 2, 1| 4, 5) =    0.0000000000
 ( 2, 1| 5, 2) =    0.0000000000
 ( 2, 1| 5, 3) =    0.0000000000
 ( 2, 1| 5, 4) =    0.0000000000
 ( 2, 1| 5, 5) =    0.0928803968
 ( 3, 1| 2, 2) =    0.0000000000
 ( 3, 1| 2, 3) =    0.0137882689
 ( 3, 1| 2, 4) =    0.0000000000
 ( 3, 1| 2, 5) =    0.0000000000
 ( 3, 1| 3, 2) =    0.0137882689
 ( 3, 1| 3, 3) =    0.0000000000
 ( 3, 1| 3, 4) =    0.0000000000
 ( 3, 1| 3, 5) =    0.0000000000
 ( 3, 1| 4, 2) =    0.0000000000
 ( 3, 1| 4, 3) =    0.0000000000
 ( 3, 1| 4, 4) =    0.0000000000
 ( 3, 1| 4, 5) =    0.0000000000
 ( 3, 1| 5, 2) =    0.0000000000
 ( 3, 1| 5, 3) =    0.0000000000
 ( 3, 1| 5, 4) =    0.0000000000
 ( 3, 1| 5, 5) =    0.0000000000
 ( 4, 1| 2, 2) =    0.0000000000
 ( 4, 1| 2, 3) =    0.0000000000
 ( 4, 1| 2, 4) =    0.0137882689
 ( 4, 1| 2, 5) =    0.0000000000
 ( 4, 1| 3, 2) =    0.0000000000
 ( 4, 1| 3, 3) =    0.0000000000
 ( 4, 1| 3, 4) =    0.0000000000
 ( 4, 1| 3, 5) =    0.0000000000
 ( 4, 1| 4, 2) =    0.0137882689
 ( 4, 1| 4, 3) =    0.0000000000
 ( 4, 1| 4, 4) =    0.0000000000
 ( 4, 1| 4, 5) =    0.0000000000
 ( 4, 1| 5, 2) =    0.0000000000
 ( 4, 1| 5, 3) =    0.0000000000
 ( 4, 1| 5, 4) =    0.0000000000
 ( 4, 1| 5, 5) =    0.0000000000
 ( 5, 1| 2, 2) =    0.0000000000
 ( 5, 1| 2, 3) =    0.0000000000
 ( 5, 1| 2, 4) =    0.0000000000
 ( 5, 1| 2, 5) =    0.0137882689
 ( 5, 1| 3, 2) =    0.0000000000
 ( 5, 1| 3, 3) =    0.0000000000
 ( 5, 1| 3, 4) =    0.0000000000
 ( 5, 1| 3, 5) =    0.0000000000
 ( 5, 1| 4, 2) =    0.0000000000
 ( 5, 1| 4, 3) =    0.0000000000
 ( 5, 1| 4, 4) =    0.0000000000
 ( 5, 1| 4, 5) =    0.0000000000
 ( 5, 1| 5, 2) =    0.0137882689
 ( 5, 1| 5, 3) =    0.0000000000
 ( 5, 1| 5, 4) =    0.0000000000
 ( 5, 1| 5, 5) =    0.0000000000
 ( 2, 2| 2, 2) =    0.2905622950
 ( 2, 2| 2, 3) =    0.0000000000
 ( 2, 2| 2, 4) =    0.0000000000
 ( 2, 2| 2, 5) =    0.0000000000
 ( 2, 2| 3, 2) =    0.0000000000
 ( 2, 2| 3, 3) =    0.2904969756
 ( 2, 2| 3, 4) =    0.0000000000
 ( 2, 2| 3, 5) =    0.0000000000
 ( 2, 2| 4, 2) =    0.0000000000
 ( 2, 2| 4, 3) =    0.0000000000
 ( 2, 2| 4, 4) =    0.2904969756
 ( 2, 2| 4, 5) =    0.0000000000
 ( 2, 2| 5, 2) =    0.0000000000
 ( 2, 2| 5, 3) =    0.0000000000
 ( 2, 2| 5, 4) =    0.0000000000
 ( 2, 2| 5, 5) =    0.2904969756
 ( 2, 3| 2, 2) =    0.0000000000
 ( 2, 3| 2, 3) =    0.0641843286
 ( 2, 3| 2, 4) =    0.0000000000
 ( 2, 3| 2, 5) =    0.0000000000
 ( 2, 3| 3, 2) =    0.0641843286
 ( 2, 3| 3, 3) =    0.0000000000
 ( 2, 3| 3, 4) =    0.0000000000
 ( 2, 3| 3, 5) =    0.0000000000
 ( 2, 3| 4, 2) =    0.0000000000
 ( 2, 3| 4, 3) =    0.0000000000
 ( 2, 3| 4, 4) =    0.0000000000
 ( 2, 3| 4, 5) =    0.0000000000
 ( 2, 3| 5, 2) =    0.0000000000
 ( 2, 3| 5, 3) =    0.0000000000
 ( 2, 3| 5, 4) =    0.0000000000
 ( 2, 3| 5, 5) =    0.0000000000
 ( 2, 4| 2, 2) =    0.0000000000
 ( 2, 4| 2, 3) =    0.0000000000
 ( 2, 4| 2, 4) =    0.0641843286
 ( 2, 4| 2, 5) =    0.0000000000
 ( 2, 4| 3, 2) =    0.0000000000
 ( 2, 4| 3, 3) =    0.0000000000
 ( 2, 4| 3, 4) =    0.0000000000
 ( 2, 4| 3, 5) =    0.0000000000
 ( 2, 4| 4, 2) =    0.0641843286
 ( 2, 4| 4, 3) =    0.0000000000
 ( 2, 4| 4, 4) =    0.0000000000
 ( 2, 4| 4, 5) =    0.0000000000
 ( 2, 4| 5, 2) =    0.0000000000
 ( 2, 4| 5, 3) =    0.0000000000
 ( 2, 4| 5, 4) =    0.0000000000
 ( 2, 4| 5, 5) =    0.0000000000
 ( 2, 5| 2, 2) =    0.0000000000
 ( 2, 5| 2, 3) =    0.0000000000
 ( 2, 5| 2, 4) =    0.0000000000
 ( 2, 5| 2, 5) =    0.0641843286
 ( 2, 5| 3, 2) =    0.0000000000
 ( 2, 5| 3, 3) =    0.0000000000
 ( 2, 5| 3, 4) =    0.0000000000
 ( 2, 5| 3, 5) =    0.0000000000
 ( 2, 5| 4, 2) =    0.0000000000
 ( 2, 5| 4, 3) =    0.0000000000
 ( 2, 5| 4, 4) =    0.0000000000
 ( 2, 5| 4, 5) =    0.0000000000
 ( 2, 5| 5, 2) =    0.0641843286
 ( 2, 5| 5, 3) =    0.0000000000
 ( 2, 5| 5, 4) =    0.0000000000
 ( 2, 5| 5, 5) =    0.0000000000
 ( 3, 2| 2, 2) =    0.0000000000
 ( 3, 2| 2, 3) =    0.0641843286
 ( 3, 2| 2, 4) =    0.0000000000
 ( 3, 2| 2, 5) =    0.0000000000
 ( 3, 2| 3, 2) =    0.0641843286
 ( 3, 2| 3, 3) =    0.0000000000
 ( 3, 2| 3, 4) =    0.0000000000
 ( 3, 2| 3, 5) =    0.0000000000
 ( 3, 2| 4, 2) =    0.0000000000
 ( 3, 2| 4, 3) =    0.0000000000
 ( 3, 2| 4, 4) =    0.0000000000
 ( 3, 2| 4, 5) =    0.0000000000
 ( 3, 2| 5, 2) =    0.0000000000
 ( 3, 2| 5, 3) =    0.0000000000
 ( 3, 2| 5, 4) =    0.0000000000
 ( 3, 2| 5, 5) =    0.0000000000
 ( 3, 3| 2, 2) =    0.2904969756
 ( 3, 3| 2, 3) =    0.0000000000
 ( 3, 3| 2, 4) =    0.0000000000
 ( 3, 3| 2, 5) =    0.0000000000
 ( 3, 3| 3, 2) =    0.0000000000
 ( 3, 3| 3, 3) =    0.3129455112
 ( 3, 3| 3, 4) =    0.0000000000
 ( 3, 3| 3, 5) =    0.0000000000
 ( 3, 3| 4, 2) =    0.0000000000
 ( 3, 3| 4, 3) =    0.0000000000
 ( 3, 3| 4, 4) =    0.2792072321
 ( 3, 3| 4, 5) =    0.0000000000
 ( 3, 3| 5, 2) =    0.0000000000
 ( 3, 3| 5, 3) =    0.0000000000
 ( 3, 3| 5, 4) =    0.0000000000
 ( 3, 3| 5, 5) =    0.2792072321
 ( 3, 4| 2, 2) =    0.0000000000
 ( 3, 4| 2, 3) =    0.0000000000
 ( 3, 4| 2, 4) =    0.0000000000
 ( 3, 4| 2, 5) =    0.0000000000
 ( 3, 4| 3, 2) =    0.0000000000
 ( 3, 4| 3, 3) =    0.0000000000
 ( 3, 4| 3, 4) =    0.0168691395
 ( 3, 4| 3, 5) =    0.0000000000
 ( 3, 4| 4, 2) =    0.0000000000
 ( 3, 4| 4, 3) =    0.0168691395
 ( 3, 4| 4, 4) =    0.0000000000
 ( 3, 4| 4, 5) =    0.0000000000
 ( 3, 4| 5, 2) =    0.0000000000
 ( 3, 4| 5, 3) =    0.0000000000
 ( 3, 4| 5, 4) =    0.0000000000
 ( 3, 4| 5, 5) =    0.0000000000
 ( 3, 5| 2, 2) =    0.0000000000
 ( 3, 5| 2, 3) =    0.0000000000
 ( 3, 5| 2, 4) =    0.0000000000
 ( 3, 5| 2, 5) =    0.0000000000
 ( 3, 5| 3, 2) =    0.0000000000
 ( 3, 5| 3, 3) =    0.0000000000
 ( 3, 5| 3, 4) =    0.0000000000
 ( 3, 5| 3, 5) =    0.0168691395
 ( 3, 5| 4, 2) =    0.0000000000
 ( 3, 5| 4, 3) =    0.0000000000
 ( 3, 5| 4, 4) =    0.0000000000
 ( 3, 5| 4, 5) =    0.0000000000
 ( 3, 5| 5, 2) =    0.0000000000
 ( 3, 5| 5, 3) =    0.0168691395
 ( 3, 5| 5, 4) =    0.0000000000
 ( 3, 5| 5, 5) =    0.0000000000
 ( 4, 2| 2, 2) =    0.0000000000
 ( 4, 2| 2, 3) =    0.0000000000
 ( 4, 2| 2, 4) =    0.0641843286
 ( 4, 2| 2, 5) =    0.0000000000
 ( 4, 2| 3, 2) =    0.0000000000
 ( 4, 2| 3, 3) =    0.0000000000
 ( 4, 2| 3, 4) =    0.0000000000
 ( 4, 2| 3, 5) =    0.0000000000
 ( 4, 2| 4, 2) =    0.0641843286
 ( 4, 2| 4, 3) =    0.0000000000
 ( 4, 2| 4, 4) =    0.0000000000
 ( 4, 2| 4, 5) =    0.0000000000
 ( 4, 2| 5, 2) =    0.0000000000
 ( 4, 2| 5, 3) =    0.0000000000
 ( 4, 2| 5, 4) =    0.0000000000
 ( 4, 2| 5, 5) =    0.0000000000
 ( 4, 3| 2, 2) =    0.0000000000
 ( 4, 3| 2, 3) =    0.0000000000
 ( 4, 3| 2, 4) =    0.0000000000
 ( 4, 3| 2, 5) =    0.0000000000
 ( 4, 3| 3, 2) =    0.0000000000
 ( 4, 3| 3, 3) =    0.0000000000
 ( 4, 3| 3, 4) =    0.0168691395
 ( 4, 3| 3, 5) =    0.0000000000
 ( 4, 3| 4, 2) =    0.0000000000
 ( 4, 3| 4, 3) =    0.0168691395
 ( 4, 3| 4, 4) =    0.0000000000
 ( 4, 3| 4, 5) =    0.0000000000
 ( 4, 3| 5, 2) =    0.0000000000
 ( 4, 3| 5, 3) =    0.0000000000
 ( 4, 3| 5, 4) =    0.0000000000
 ( 4, 3| 5, 5) =    0.0000000000
 ( 4, 4| 2, 2) =    0.2904969756
 ( 4, 4| 2, 3) =    0.0000000000
 ( 4, 4| 2, 4) =    0.0000000000
 ( 4, 4| 2, 5) =    0.0000000000
 ( 4, 4| 3, 2) =    0.0000000000
 ( 4, 4| 3, 3) =    0.2792072321
 ( 4, 4| 3, 4) =    0.0000000000
 ( 4, 4| 3, 5) =    0.0000000000
 ( 4, 4| 4, 2) =    0.0000000000
 ( 4, 4| 4, 3) =    0.0000000000
 ( 4, 4| 4, 4) =    0.3129455112
 ( 4, 4| 4, 5) =    0.0000000000
 ( 4, 4| 5, 2) =    0.0000000000
 ( 4, 4| 5, 3) =    0.0000000000
 ( 4, 4| 5, 4) =    0.0000000000
 ( 4, 4| 5, 5) =    0.2792072321
 ( 4, 5| 2, 2) =    0.0000000000
 ( 4, 5| 2, 3) =    0.0000000000
 ( 4, 5| 2, 4) =    0.0000000000
 ( 4, 5| 2, 5) =    0.0000000000
 ( 4, 5| 3, 2) =    0.0000000000
 ( 4, 5| 3, 3) =    0.0000000000
 ( 4, 5| 3, 4) =    0.0000000000
 ( 4, 5| 3, 5) =    0.0000000000
 ( 4, 5| 4, 2) =    0.0000000000
 ( 4, 5| 4, 3) =    0.0000000000
 ( 4, 5| 4, 4) =    0.0000000000
 ( 4, 5| 4, 5) =    0.0168691395
 ( 4, 5| 5, 2) =    0.0000000000
 ( 4, 5| 5, 3) =    0.0000000000
 ( 4, 5| 5, 4) =    0.0168691395
 ( 4, 5| 5, 5) =    0.0000000000
 ( 5, 2| 2, 2) =    0.0000000000
 ( 5, 2| 2, 3) =    0.0000000000
 ( 5, 2| 2, 4) =    0.0000000000
 ( 5, 2| 2, 5) =    0.0641843286
 ( 5, 2| 3, 2) =    0.0000000000
 ( 5, 2| 3, 3) =    0.0000000000
 ( 5, 2| 3, 4) =    0.0000000000
 ( 5, 2| 3, 5) =    0.0000000000
 ( 5, 2| 4, 2) =    0.0000000000
 ( 5, 2| 4, 3) =    0.0000000000
 ( 5, 2| 4, 4) =    0.0000000000
 ( 5, 2| 4, 5) =    0.0000000000
 ( 5, 2| 5, 2) =    0.0641843286
 ( 5, 2| 5, 3) =    0.0000000000
 ( 5, 2| 5, 4) =    0.0000000000
 ( 5, 2| 5, 5) =    0.0000000000
 ( 5, 3| 2, 2) =    0.0000000000
 ( 5, 3| 2, 3) =    0.0000000000
 ( 5, 3| 2, 4) =    0.0000000000
 ( 5, 3| 2, 5) =    0.0000000000
 ( 5, 3| 3, 2) =    0.0000000000
 ( 5, 3| 3, 3) =    0.0000000000
 ( 5, 3| 3, 4) =    0.0000000000
 ( 5, 3| 3, 5) =    0.0168691395
 ( 5, 3| 4, 2) =    0.0000000000
 ( 5, 3| 4, 3) =    0.0000000000
 ( 5, 3| 4, 4) =    0.0000000000
 ( 5, 3| 4, 5) =    0.0000000000
 ( 5, 3| 5, 2) =    0.0000000000
 ( 5, 3| 5, 3) =    0.0168691395
 ( 5, 3| 5, 4) =    0.0000000000
 ( 5, 3| 5, 5) =    0.0000000000
 ( 5, 4| 2, 2) =    0.0000000000
 ( 5, 4| 2, 3) =    0.0000000000
 ( 5, 4| 2, 4) =    0.0000000000
 ( 5, 4| 2, 5) =    0.0000000000
 ( 5, 4| 3, 2) =    0.0000000000
 ( 5, 4| 3, 3) =    0.0000000000
 ( 5, 4| 3, 4) =    0.0000000000
 ( 5, 4| 3, 5) =    0.0000000000
 ( 5, 4| 4, 2) =    0.0000000000
 ( 5, 4| 4, 3) =    0.0000000000
 ( 5, 4| 4, 4) =    0.0000000000
 ( 5, 4| 4, 5) =    0.0168691395
 ( 5, 4| 5, 2) =    0.0000000000
 ( 5, 4| 5, 3) =    0.0000000000
 ( 5, 4| 5, 4) =    0.0168691395
 ( 5, 4| 5, 5) =    0.0000000000
 ( 5, 5| 2, 2) =    0.2904969756
 ( 5, 5| 2, 3) =    0.0000000000
 ( 5, 5| 2, 4) =    0.0000000000
 ( 5, 5| 2, 5) =    0.0000000000
 ( 5, 5| 3, 2) =    0.0000000000
 ( 5, 5| 3, 3) =    0.2792072321
 ( 5, 5| 3, 4) =    0.0000000000
 ( 5, 5| 3, 5) =    0.0000000000
 ( 5, 5| 4, 2) =    0.0000000000
 ( 5, 5| 4, 3) =    0.0000000000
 ( 5, 5| 4, 4) =    0.2792072321
 ( 5, 5| 4, 5) =    0.0000000000
 ( 5, 5| 5, 2) =    0.0000000000
 ( 5, 5| 5, 3) =    0.0000000000
 ( 5, 5| 5, 4) =    0.0000000000
 ( 5, 5| 5, 5) =    0.3129455112
    2      -7.3155157799      1.30E-03

 Q-Chem warning in module 0, line   71:

 AOINTS_DEBUG_PRINT=4

  *** Integrals not dumped for new Path2.  For full
  *** integral dump, compile with -DNO_NEW_PATH2 
 
 AOInts used (LenV =124999998) to compute the J vector and K matrices
 ( 1, 1| 1, 1) =    1.6803951695
 ( 1, 1| 2, 1) =    0.2654203646
 ( 1, 1| 3, 1) =    0.0000000000
 ( 1, 1| 4, 1) =    0.0000000000
 ( 1, 1| 5, 1) =    0.0000000000
 ( 1, 1| 2, 2) =    0.3977268611
 ( 1, 1| 2, 3) =    0.0000000000
 ( 1, 1| 2, 4) =    0.0000000000
 ( 1, 1| 2, 5) =    0.0000000000
 ( 1, 1| 3, 2) =    0.0000000000
 ( 1, 1| 3, 3) =    0.3966396423
 ( 1, 1| 3, 4) =    0.0000000000
 ( 1, 1| 3, 5) =    0.0000000000
 ( 1, 1| 4, 2) =    0.0000000000
 ( 1, 1| 4, 3) =    0.0000000000
 ( 1, 1| 4, 4) =    0.3966396423
 ( 1, 1| 4, 5) =    0.0000000000
 ( 1, 1| 5, 2) =    0.0000000000
 ( 1, 1| 5, 3) =    0.0000000000
 ( 1, 1| 5, 4) =    0.0000000000
 ( 1, 1| 5, 5) =    0.3966396423
 ( 2, 1| 2, 1) =    0.0499414572
 ( 2, 1| 3, 1) =    0.0000000000
 ( 2, 1| 4, 1) =    0.0000000000
 ( 2, 1| 5, 1) =    0.0000000000
 ( 3, 1| 2, 1) =    0.0000000000
 ( 3, 1| 3, 1) =    0.0089813193
 ( 3, 1| 4, 1) =    0.0000000000
 ( 3, 1| 5, 1) =    0.0000000000
 ( 4, 1| 2, 1) =    0.0000000000
 ( 4, 1| 3, 1) =    0.0000000000
 ( 4, 1| 4, 1) =    0.0089813193
 ( 4, 1| 5, 1) =    0.0000000000
 ( 5, 1| 2, 1) =    0.0000000000
 ( 5, 1| 3, 1) =    0.0000000000
 ( 5, 1| 4, 1) =    0.0000000000
 ( 5, 1| 5, 1) =    0.0089813193
 ( 2, 1| 2, 2) =    0.0928601436
 ( 2, 1| 2, 3) =    0.0000000000
 ( 2, 1| 2, 4) =    0.0000000000
 ( 2, 1| 2, 5) =    0.0000000000
 ( 2, 1| 3, 2) =    0.0000000000
 ( 2, 1| 3, 3) =    0.0928803968
 ( 2, 1| 3, 4) =    0.0000000000
 ( 2, 1| 3, 5) =    0.0000000000
 ( 2, 1| 4, 2) =    0.0000000000
 ( 2, 1| 4, 3) =    0.0000000000
 ( 2, 1| 4, 4) =    0.0928803968
 ( 2, 1| 4, 5) =    0.0000000000
 ( 2, 1| 5, 2) =    0.0000000000
 ( 2, 1| 5, 3) =    0.0000000000
 ( 2, 1| 5, 4) =    0.0000000000
 ( 2, 1| 5, 5) =    0.0928803968
 ( 3, 1| 2, 2) =    0.0000000000
 ( 3, 1| 2, 3) =    0.0137882689
 ( 3, 1| 2, 4) =    0.0000000000
 ( 3, 1| 2, 5) =    0.0000000000
 ( 3, 1| 3, 2) =    0.0137882689
 ( 3, 1| 3, 3) =    0.0000000000
 ( 3, 1| 3, 4) =    0.0000000000
 ( 3, 1| 3, 5) =    0.0000000000
 ( 3, 1| 4, 2) =    0.0000000000
 ( 3, 1| 4, 3) =    0.0000000000
 ( 3, 1| 4, 4) =    0.0000000000
 ( 3, 1| 4, 5) =    0.0000000000
 ( 3, 1| 5, 2) =    0.0000000000
 ( 3, 1| 5, 3) =    0.0000000000
 ( 3, 1| 5, 4) =    0.0000000000
 ( 3, 1| 5, 5) =    0.0000000000
 ( 4, 1| 2, 2) =    0.0000000000
 ( 4, 1| 2, 3) =    0.0000000000
 ( 4, 1| 2, 4) =    0.0137882689
 ( 4, 1| 2, 5) =    0.0000000000
 ( 4, 1| 3, 2) =    0.0000000000
 ( 4, 1| 3, 3) =    0.0000000000
 ( 4, 1| 3, 4) =    0.0000000000
 ( 4, 1| 3, 5) =    0.0000000000
 ( 4, 1| 4, 2) =    0.0137882689
 ( 4, 1| 4, 3) =    0.0000000000
 ( 4, 1| 4, 4) =    0.0000000000
 ( 4, 1| 4, 5) =    0.0000000000
 ( 4, 1| 5, 2) =    0.0000000000
 ( 4, 1| 5, 3) =    0.0000000000
 ( 4, 1| 5, 4) =    0.0000000000
 ( 4, 1| 5, 5) =    0.0000000000
 ( 5, 1| 2, 2) =    0.0000000000
 ( 5, 1| 2, 3) =    0.0000000000
 ( 5, 1| 2, 4) =    0.0000000000
 ( 5, 1| 2, 5) =    0.0137882689
 ( 5, 1| 3, 2) =    0.0000000000
 ( 5, 1| 3, 3) =    0.0000000000
 ( 5, 1| 3, 4) =    0.0000000000
 ( 5, 1| 3, 5) =    0.0000000000
 ( 5, 1| 4, 2) =    0.0000000000
 ( 5, 1| 4, 3) =    0.0000000000
 ( 5, 1| 4, 4) =    0.0000000000
 ( 5, 1| 4, 5) =    0.0000000000
 ( 5, 1| 5, 2) =    0.0137882689
 ( 5, 1| 5, 3) =    0.0000000000
 ( 5, 1| 5, 4) =    0.0000000000
 ( 5, 1| 5, 5) =    0.0000000000
 ( 2, 2| 2, 2) =    0.2905622950
 ( 2, 2| 2, 3) =    0.0000000000
 ( 2, 2| 2, 4) =    0.0000000000
 ( 2, 2| 2, 5) =    0.0000000000
 ( 2, 2| 3, 2) =    0.0000000000
 ( 2, 2| 3, 3) =    0.2904969756
 ( 2, 2| 3, 4) =    0.0000000000
 ( 2, 2| 3, 5) =    0.0000000000
 ( 2, 2| 4, 2) =    0.0000000000
 ( 2, 2| 4, 3) =    0.0000000000
 ( 2, 2| 4, 4) =    0.2904969756
 ( 2, 2| 4, 5) =    0.0000000000
 ( 2, 2| 5, 2) =    0.0000000000
 ( 2, 2| 5, 3) =    0.0000000000
 ( 2, 2| 5, 4) =    0.0000000000
 ( 2, 2| 5, 5) =    0.2904969756
 ( 2, 3| 2, 2) =    0.0000000000
 ( 2, 3| 2, 3) =    0.0641843286
 ( 2, 3| 2, 4) =    0.0000000000
 ( 2, 3| 2, 5) =    0.0000000000
 ( 2, 3| 3, 2) =    0.0641843286
 ( 2, 3| 3, 3) =    0.0000000000
 ( 2, 3| 3, 4) =    0.0000000000
 ( 2, 3| 3, 5) =    0.0000000000
 ( 2, 3| 4, 2) =    0.0000000000
 ( 2, 3| 4, 3) =    0.0000000000
 ( 2, 3| 4, 4) =    0.0000000000
 ( 2, 3| 4, 5) =    0.0000000000
 ( 2, 3| 5, 2) =    0.0000000000
 ( 2, 3| 5, 3) =    0.0000000000
 ( 2, 3| 5, 4) =    0.0000000000
 ( 2, 3| 5, 5) =    0.0000000000
 ( 2, 4| 2, 2) =    0.0000000000
 ( 2, 4| 2, 3) =    0.0000000000
 ( 2, 4| 2, 4) =    0.0641843286
 ( 2, 4| 2, 5) =    0.0000000000
 ( 2, 4| 3, 2) =    0.0000000000
 ( 2, 4| 3, 3) =    0.0000000000
 ( 2, 4| 3, 4) =    0.0000000000
 ( 2, 4| 3, 5) =    0.0000000000
 ( 2, 4| 4, 2) =    0.0641843286
 ( 2, 4| 4, 3) =    0.0000000000
 ( 2, 4| 4, 4) =    0.0000000000
 ( 2, 4| 4, 5) =    0.0000000000
 ( 2, 4| 5, 2) =    0.0000000000
 ( 2, 4| 5, 3) =    0.0000000000
 ( 2, 4| 5, 4) =    0.0000000000
 ( 2, 4| 5, 5) =    0.0000000000
 ( 2, 5| 2, 2) =    0.0000000000
 ( 2, 5| 2, 3) =    0.0000000000
 ( 2, 5| 2, 4) =    0.0000000000
 ( 2, 5| 2, 5) =    0.0641843286
 ( 2, 5| 3, 2) =    0.0000000000
 ( 2, 5| 3, 3) =    0.0000000000
 ( 2, 5| 3, 4) =    0.0000000000
 ( 2, 5| 3, 5) =    0.0000000000
 ( 2, 5| 4, 2) =    0.0000000000
 ( 2, 5| 4, 3) =    0.0000000000
 ( 2, 5| 4, 4) =    0.0000000000
 ( 2, 5| 4, 5) =    0.0000000000
 ( 2, 5| 5, 2) =    0.0641843286
 ( 2, 5| 5, 3) =    0.0000000000
 ( 2, 5| 5, 4) =    0.0000000000
 ( 2, 5| 5, 5) =    0.0000000000
 ( 3, 2| 2, 2) =    0.0000000000
 ( 3, 2| 2, 3) =    0.0641843286
 ( 3, 2| 2, 4) =    0.0000000000
 ( 3, 2| 2, 5) =    0.0000000000
 ( 3, 2| 3, 2) =    0.0641843286
 ( 3, 2| 3, 3) =    0.0000000000
 ( 3, 2| 3, 4) =    0.0000000000
 ( 3, 2| 3, 5) =    0.0000000000
 ( 3, 2| 4, 2) =    0.0000000000
 ( 3, 2| 4, 3) =    0.0000000000
 ( 3, 2| 4, 4) =    0.0000000000
 ( 3, 2| 4, 5) =    0.0000000000
 ( 3, 2| 5, 2) =    0.0000000000
 ( 3, 2| 5, 3) =    0.0000000000
 ( 3, 2| 5, 4) =    0.0000000000
 ( 3, 2| 5, 5) =    0.0000000000
 ( 3, 3| 2, 2) =    0.2904969756
 ( 3, 3| 2, 3) =    0.0000000000
 ( 3, 3| 2, 4) =    0.0000000000
 ( 3, 3| 2, 5) =    0.0000000000
 ( 3, 3| 3, 2) =    0.0000000000
 ( 3, 3| 3, 3) =    0.3129455112
 ( 3, 3| 3, 4) =    0.0000000000
 ( 3, 3| 3, 5) =    0.0000000000
 ( 3, 3| 4, 2) =    0.0000000000
 ( 3, 3| 4, 3) =    0.0000000000
 ( 3, 3| 4, 4) =    0.2792072321
 ( 3, 3| 4, 5) =    0.0000000000
 ( 3, 3| 5, 2) =    0.0000000000
 ( 3, 3| 5, 3) =    0.0000000000
 ( 3, 3| 5, 4) =    0.0000000000
 ( 3, 3| 5, 5) =    0.2792072321
 ( 3, 4| 2, 2) =    0.0000000000
 ( 3, 4| 2, 3) =    0.0000000000
 ( 3, 4| 2, 4) =    0.0000000000
 ( 3, 4| 2, 5) =    0.0000000000
 ( 3, 4| 3, 2) =    0.0000000000
 ( 3, 4| 3, 3) =    0.0000000000
 ( 3, 4| 3, 4) =    0.0168691395
 ( 3, 4| 3, 5) =    0.0000000000
 ( 3, 4| 4, 2) =    0.0000000000
 ( 3, 4| 4, 3) =    0.0168691395
 ( 3, 4| 4, 4) =    0.0000000000
 ( 3, 4| 4, 5) =    0.0000000000
 ( 3, 4| 5, 2) =    0.0000000000
 ( 3, 4| 5, 3) =    0.0000000000
 ( 3, 4| 5, 4) =    0.0000000000
 ( 3, 4| 5, 5) =    0.0000000000
 ( 3, 5| 2, 2) =    0.0000000000
 ( 3, 5| 2, 3) =    0.0000000000
 ( 3, 5| 2, 4) =    0.0000000000
 ( 3, 5| 2, 5) =    0.0000000000
 ( 3, 5| 3, 2) =    0.0000000000
 ( 3, 5| 3, 3) =    0.0000000000
 ( 3, 5| 3, 4) =    0.0000000000
 ( 3, 5| 3, 5) =    0.0168691395
 ( 3, 5| 4, 2) =    0.0000000000
 ( 3, 5| 4, 3) =    0.0000000000
 ( 3, 5| 4, 4) =    0.0000000000
 ( 3, 5| 4, 5) =    0.0000000000
 ( 3, 5| 5, 2) =    0.0000000000
 ( 3, 5| 5, 3) =    0.0168691395
 ( 3, 5| 5, 4) =    0.0000000000
 ( 3, 5| 5, 5) =    0.0000000000
 ( 4, 2| 2, 2) =    0.0000000000
 ( 4, 2| 2, 3) =    0.0000000000
 ( 4, 2| 2, 4) =    0.0641843286
 ( 4, 2| 2, 5) =    0.0000000000
 ( 4, 2| 3, 2) =    0.0000000000
 ( 4, 2| 3, 3) =    0.0000000000
 ( 4, 2| 3, 4) =    0.0000000000
 ( 4, 2| 3, 5) =    0.0000000000
 ( 4, 2| 4, 2) =    0.0641843286
 ( 4, 2| 4, 3) =    0.0000000000
 ( 4, 2| 4, 4) =    0.0000000000
 ( 4, 2| 4, 5) =    0.0000000000
 ( 4, 2| 5, 2) =    0.0000000000
 ( 4, 2| 5, 3) =    0.0000000000
 ( 4, 2| 5, 4) =    0.0000000000
 ( 4, 2| 5, 5) =    0.0000000000
 ( 4, 3| 2, 2) =    0.0000000000
 ( 4, 3| 2, 3) =    0.0000000000
 ( 4, 3| 2, 4) =    0.0000000000
 ( 4, 3| 2, 5) =    0.0000000000
 ( 4, 3| 3, 2) =    0.0000000000
 ( 4, 3| 3, 3) =    0.0000000000
 ( 4, 3| 3, 4) =    0.0168691395
 ( 4, 3| 3, 5) =    0.0000000000
 ( 4, 3| 4, 2) =    0.0000000000
 ( 4, 3| 4, 3) =    0.0168691395
 ( 4, 3| 4, 4) =    0.0000000000
 ( 4, 3| 4, 5) =    0.0000000000
 ( 4, 3| 5, 2) =    0.0000000000
 ( 4, 3| 5, 3) =    0.0000000000
 ( 4, 3| 5, 4) =    0.0000000000
 ( 4, 3| 5, 5) =    0.0000000000
 ( 4, 4| 2, 2) =    0.2904969756
 ( 4, 4| 2, 3) =    0.0000000000
 ( 4, 4| 2, 4) =    0.0000000000
 ( 4, 4| 2, 5) =    0.0000000000
 ( 4, 4| 3, 2) =    0.0000000000
 ( 4, 4| 3, 3) =    0.2792072321
 ( 4, 4| 3, 4) =    0.0000000000
 ( 4, 4| 3, 5) =    0.0000000000
 ( 4, 4| 4, 2) =    0.0000000000
 ( 4, 4| 4, 3) =    0.0000000000
 ( 4, 4| 4, 4) =    0.3129455112
 ( 4, 4| 4, 5) =    0.0000000000
 ( 4, 4| 5, 2) =    0.0000000000
 ( 4, 4| 5, 3) =    0.0000000000
 ( 4, 4| 5, 4) =    0.0000000000
 ( 4, 4| 5, 5) =    0.2792072321
 ( 4, 5| 2, 2) =    0.0000000000
 ( 4, 5| 2, 3) =    0.0000000000
 ( 4, 5| 2, 4) =    0.0000000000
 ( 4, 5| 2, 5) =    0.0000000000
 ( 4, 5| 3, 2) =    0.0000000000
 ( 4, 5| 3, 3) =    0.0000000000
 ( 4, 5| 3, 4) =    0.0000000000
 ( 4, 5| 3, 5) =    0.0000000000
 ( 4, 5| 4, 2) =    0.0000000000
 ( 4, 5| 4, 3) =    0.0000000000
 ( 4, 5| 4, 4) =    0.0000000000
 ( 4, 5| 4, 5) =    0.0168691395
 ( 4, 5| 5, 2) =    0.0000000000
 ( 4, 5| 5, 3) =    0.0000000000
 ( 4, 5| 5, 4) =    0.0168691395
 ( 4, 5| 5, 5) =    0.0000000000
 ( 5, 2| 2, 2) =    0.0000000000
 ( 5, 2| 2, 3) =    0.0000000000
 ( 5, 2| 2, 4) =    0.0000000000
 ( 5, 2| 2, 5) =    0.0641843286
 ( 5, 2| 3, 2) =    0.0000000000
 ( 5, 2| 3, 3) =    0.0000000000
 ( 5, 2| 3, 4) =    0.0000000000
 ( 5, 2| 3, 5) =    0.0000000000
 ( 5, 2| 4, 2) =    0.0000000000
 ( 5, 2| 4, 3) =    0.0000000000
 ( 5, 2| 4, 4) =    0.0000000000
 ( 5, 2| 4, 5) =    0.0000000000
 ( 5, 2| 5, 2) =    0.0641843286
 ( 5, 2| 5, 3) =    0.0000000000
 ( 5, 2| 5, 4) =    0.0000000000
 ( 5, 2| 5, 5) =    0.0000000000
 ( 5, 3| 2, 2) =    0.0000000000
 ( 5, 3| 2, 3) =    0.0000000000
 ( 5, 3| 2, 4) =    0.0000000000
 ( 5, 3| 2, 5) =    0.0000000000
 ( 5, 3| 3, 2) =    0.0000000000
 ( 5, 3| 3, 3) =    0.0000000000
 ( 5, 3| 3, 4) =    0.0000000000
 ( 5, 3| 3, 5) =    0.0168691395
 ( 5, 3| 4, 2) =    0.0000000000
 ( 5, 3| 4, 3) =    0.0000000000
 ( 5, 3| 4, 4) =    0.0000000000
 ( 5, 3| 4, 5) =    0.0000000000
 ( 5, 3| 5, 2) =    0.0000000000
 ( 5, 3| 5, 3) =    0.0168691395
 ( 5, 3| 5, 4) =    0.0000000000
 ( 5, 3| 5, 5) =    0.0000000000
 ( 5, 4| 2, 2) =    0.0000000000
 ( 5, 4| 2, 3) =    0.0000000000
 ( 5, 4| 2, 4) =    0.0000000000
 ( 5, 4| 2, 5) =    0.0000000000
 ( 5, 4| 3, 2) =    0.0000000000
 ( 5, 4| 3, 3) =    0.0000000000
 ( 5, 4| 3, 4) =    0.0000000000
 ( 5, 4| 3, 5) =    0.0000000000
 ( 5, 4| 4, 2) =    0.0000000000
 ( 5, 4| 4, 3) =    0.0000000000
 ( 5, 4| 4, 4) =    0.0000000000
 ( 5, 4| 4, 5) =    0.0168691395
 ( 5, 4| 5, 2) =    0.0000000000
 ( 5, 4| 5, 3) =    0.0000000000
 ( 5, 4| 5, 4) =    0.0168691395
 ( 5, 4| 5, 5) =    0.0000000000
 ( 5, 5| 2, 2) =    0.2904969756
 ( 5, 5| 2, 3) =    0.0000000000
 ( 5, 5| 2, 4) =    0.0000000000
 ( 5, 5| 2, 5) =    0.0000000000
 ( 5, 5| 3, 2) =    0.0000000000
 ( 5, 5| 3, 3) =    0.2792072321
 ( 5, 5| 3, 4) =    0.0000000000
 ( 5, 5| 3, 5) =    0.0000000000
 ( 5, 5| 4, 2) =    0.0000000000
 ( 5, 5| 4, 3) =    0.0000000000
 ( 5, 5| 4, 4) =    0.2792072321
 ( 5, 5| 4, 5) =    0.0000000000
 ( 5, 5| 5, 2) =    0.0000000000
 ( 5, 5| 5, 3) =    0.0000000000
 ( 5, 5| 5, 4) =    0.0000000000
 ( 5, 5| 5, 5) =    0.3129455112
    3      -7.3155229964      7.03E-04

 Q-Chem warning in module 0, line   71:

 AOINTS_DEBUG_PRINT=4

  *** Integrals not dumped for new Path2.  For full
  *** integral dump, compile with -DNO_NEW_PATH2 
 
 AOInts used (LenV =124999998) to compute the J vector and K matrices
 ( 1, 1| 1, 1) =    1.6803951695
 ( 1, 1| 2, 1) =    0.2654203646
 ( 1, 1| 3, 1) =    0.0000000000
 ( 1, 1| 4, 1) =    0.0000000000
 ( 1, 1| 5, 1) =    0.0000000000
 ( 1, 1| 2, 2) =    0.3977268611
 ( 1, 1| 2, 3) =    0.0000000000
 ( 1, 1| 2, 4) =    0.0000000000
 ( 1, 1| 2, 5) =    0.0000000000
 ( 1, 1| 3, 2) =    0.0000000000
 ( 1, 1| 3, 3) =    0.3966396423
 ( 1, 1| 3, 4) =    0.0000000000
 ( 1, 1| 3, 5) =    0.0000000000
 ( 1, 1| 4, 2) =    0.0000000000
 ( 1, 1| 4, 3) =    0.0000000000
 ( 1, 1| 4, 4) =    0.3966396423
 ( 1, 1| 4, 5) =    0.0000000000
 ( 1, 1| 5, 2) =    0.0000000000
 ( 1, 1| 5, 3) =    0.0000000000
 ( 1, 1| 5, 4) =    0.0000000000
 ( 1, 1| 5, 5) =    0.3966396423
 ( 2, 1| 2, 1) =    0.0499414572
 ( 2, 1| 3, 1) =    0.0000000000
 ( 2, 1| 4, 1) =    0.0000000000
 ( 2, 1| 5, 1) =    0.0000000000
 ( 3, 1| 2, 1) =    0.0000000000
 ( 3, 1| 3, 1) =    0.0089813193
 ( 3, 1| 4, 1) =    0.0000000000
 ( 3, 1| 5, 1) =    0.0000000000
 ( 4, 1| 2, 1) =    0.0000000000
 ( 4, 1| 3, 1) =    0.0000000000
 ( 4, 1| 4, 1) =    0.0089813193
 ( 4, 1| 5, 1) =    0.0000000000
 ( 5, 1| 2, 1) =    0.0000000000
 ( 5, 1| 3, 1) =    0.0000000000
 ( 5, 1| 4, 1) =    0.0000000000
 ( 5, 1| 5, 1) =    0.0089813193
 ( 2, 1| 2, 2) =    0.0928601436
 ( 2, 1| 2, 3) =    0.0000000000
 ( 2, 1| 2, 4) =    0.0000000000
 ( 2, 1| 2, 5) =    0.0000000000
 ( 2, 1| 3, 2) =    0.0000000000
 ( 2, 1| 3, 3) =    0.0928803968
 ( 2, 1| 3, 4) =    0.0000000000
 ( 2, 1| 3, 5) =    0.0000000000
 ( 2, 1| 4, 2) =    0.0000000000
 ( 2, 1| 4, 3) =    0.0000000000
 ( 2, 1| 4, 4) =    0.0928803968
 ( 2, 1| 4, 5) =    0.0000000000
 ( 2, 1| 5, 2) =    0.0000000000
 ( 2, 1| 5, 3) =    0.0000000000
 ( 2, 1| 5, 4) =    0.0000000000
 ( 2, 1| 5, 5) =    0.0928803968
 ( 3, 1| 2, 2) =    0.0000000000
 ( 3, 1| 2, 3) =    0.0137882689
 ( 3, 1| 2, 4) =    0.0000000000
 ( 3, 1| 2, 5) =    0.0000000000
 ( 3, 1| 3, 2) =    0.0137882689
 ( 3, 1| 3, 3) =    0.0000000000
 ( 3, 1| 3, 4) =    0.0000000000
 ( 3, 1| 3, 5) =    0.0000000000
 ( 3, 1| 4, 2) =    0.0000000000
 ( 3, 1| 4, 3) =    0.0000000000
 ( 3, 1| 4, 4) =    0.0000000000
 ( 3, 1| 4, 5) =    0.0000000000
 ( 3, 1| 5, 2) =    0.0000000000
 ( 3, 1| 5, 3) =    0.0000000000
 ( 3, 1| 5, 4) =    0.0000000000
 ( 3, 1| 5, 5) =    0.0000000000
 ( 4, 1| 2, 2) =    0.0000000000
 ( 4, 1| 2, 3) =    0.0000000000
 ( 4, 1| 2, 4) =    0.0137882689
 ( 4, 1| 2, 5) =    0.0000000000
 ( 4, 1| 3, 2) =    0.0000000000
 ( 4, 1| 3, 3) =    0.0000000000
 ( 4, 1| 3, 4) =    0.0000000000
 ( 4, 1| 3, 5) =    0.0000000000
 ( 4, 1| 4, 2) =    0.0137882689
 ( 4, 1| 4, 3) =    0.0000000000
 ( 4, 1| 4, 4) =    0.0000000000
 ( 4, 1| 4, 5) =    0.0000000000
 ( 4, 1| 5, 2) =    0.0000000000
 ( 4, 1| 5, 3) =    0.0000000000
 ( 4, 1| 5, 4) =    0.0000000000
 ( 4, 1| 5, 5) =    0.0000000000
 ( 5, 1| 2, 2) =    0.0000000000
 ( 5, 1| 2, 3) =    0.0000000000
 ( 5, 1| 2, 4) =    0.0000000000
 ( 5, 1| 2, 5) =    0.0137882689
 ( 5, 1| 3, 2) =    0.0000000000
 ( 5, 1| 3, 3) =    0.0000000000
 ( 5, 1| 3, 4) =    0.0000000000
 ( 5, 1| 3, 5) =    0.0000000000
 ( 5, 1| 4, 2) =    0.0000000000
 ( 5, 1| 4, 3) =    0.0000000000
 ( 5, 1| 4, 4) =    0.0000000000
 ( 5, 1| 4, 5) =    0.0000000000
 ( 5, 1| 5, 2) =    0.0137882689
 ( 5, 1| 5, 3) =    0.0000000000
 ( 5, 1| 5, 4) =    0.0000000000
 ( 5, 1| 5, 5) =    0.0000000000
 ( 2, 2| 2, 2) =    0.2905622950
 ( 2, 2| 2, 3) =    0.0000000000
 ( 2, 2| 2, 4) =    0.0000000000
 ( 2, 2| 2, 5) =    0.0000000000
 ( 2, 2| 3, 2) =    0.0000000000
 ( 2, 2| 3, 3) =    0.2904969756
 ( 2, 2| 3, 4) =    0.0000000000
 ( 2, 2| 3, 5) =    0.0000000000
 ( 2, 2| 4, 2) =    0.0000000000
 ( 2, 2| 4, 3) =    0.0000000000
 ( 2, 2| 4, 4) =    0.2904969756
 ( 2, 2| 4, 5) =    0.0000000000
 ( 2, 2| 5, 2) =    0.0000000000
 ( 2, 2| 5, 3) =    0.0000000000
 ( 2, 2| 5, 4) =    0.0000000000
 ( 2, 2| 5, 5) =    0.2904969756
 ( 2, 3| 2, 2) =    0.0000000000
 ( 2, 3| 2, 3) =    0.0641843286
 ( 2, 3| 2, 4) =    0.0000000000
 ( 2, 3| 2, 5) =    0.0000000000
 ( 2, 3| 3, 2) =    0.0641843286
 ( 2, 3| 3, 3) =    0.0000000000
 ( 2, 3| 3, 4) =    0.0000000000
 ( 2, 3| 3, 5) =    0.0000000000
 ( 2, 3| 4, 2) =    0.0000000000
 ( 2, 3| 4, 3) =    0.0000000000
 ( 2, 3| 4, 4) =    0.0000000000
 ( 2, 3| 4, 5) =    0.0000000000
 ( 2, 3| 5, 2) =    0.0000000000
 ( 2, 3| 5, 3) =    0.0000000000
 ( 2, 3| 5, 4) =    0.0000000000
 ( 2, 3| 5, 5) =    0.0000000000
 ( 2, 4| 2, 2) =    0.0000000000
 ( 2, 4| 2, 3) =    0.0000000000
 ( 2, 4| 2, 4) =    0.0641843286
 ( 2, 4| 2, 5) =    0.0000000000
 ( 2, 4| 3, 2) =    0.0000000000
 ( 2, 4| 3, 3) =    0.0000000000
 ( 2, 4| 3, 4) =    0.0000000000
 ( 2, 4| 3, 5) =    0.0000000000
 ( 2, 4| 4, 2) =    0.0641843286
 ( 2, 4| 4, 3) =    0.0000000000
 ( 2, 4| 4, 4) =    0.0000000000
 ( 2, 4| 4, 5) =    0.0000000000
 ( 2, 4| 5, 2) =    0.0000000000
 ( 2, 4| 5, 3) =    0.0000000000
 ( 2, 4| 5, 4) =    0.0000000000
 ( 2, 4| 5, 5) =    0.0000000000
 ( 2, 5| 2, 2) =    0.0000000000
 ( 2, 5| 2, 3) =    0.0000000000
 ( 2, 5| 2, 4) =    0.0000000000
 ( 2, 5| 2, 5) =    0.0641843286
 ( 2, 5| 3, 2) =    0.0000000000
 ( 2, 5| 3, 3) =    0.0000000000
 ( 2, 5| 3, 4) =    0.0000000000
 ( 2, 5| 3, 5) =    0.0000000000
 ( 2, 5| 4, 2) =    0.0000000000
 ( 2, 5| 4, 3) =    0.0000000000
 ( 2, 5| 4, 4) =    0.0000000000
 ( 2, 5| 4, 5) =    0.0000000000
 ( 2, 5| 5, 2) =    0.0641843286
 ( 2, 5| 5, 3) =    0.0000000000
 ( 2, 5| 5, 4) =    0.0000000000
 ( 2, 5| 5, 5) =    0.0000000000
 ( 3, 2| 2, 2) =    0.0000000000
 ( 3, 2| 2, 3) =    0.0641843286
 ( 3, 2| 2, 4) =    0.0000000000
 ( 3, 2| 2, 5) =    0.0000000000
 ( 3, 2| 3, 2) =    0.0641843286
 ( 3, 2| 3, 3) =    0.0000000000
 ( 3, 2| 3, 4) =    0.0000000000
 ( 3, 2| 3, 5) =    0.0000000000
 ( 3, 2| 4, 2) =    0.0000000000
 ( 3, 2| 4, 3) =    0.0000000000
 ( 3, 2| 4, 4) =    0.0000000000
 ( 3, 2| 4, 5) =    0.0000000000
 ( 3, 2| 5, 2) =    0.0000000000
 ( 3, 2| 5, 3) =    0.0000000000
 ( 3, 2| 5, 4) =    0.0000000000
 ( 3, 2| 5, 5) =    0.0000000000
 ( 3, 3| 2, 2) =    0.2904969756
 ( 3, 3| 2, 3) =    0.0000000000
 ( 3, 3| 2, 4) =    0.0000000000
 ( 3, 3| 2, 5) =    0.0000000000
 ( 3, 3| 3, 2) =    0.0000000000
 ( 3, 3| 3, 3) =    0.3129455112
 ( 3, 3| 3, 4) =    0.0000000000
 ( 3, 3| 3, 5) =    0.0000000000
 ( 3, 3| 4, 2) =    0.0000000000
 ( 3, 3| 4, 3) =    0.0000000000
 ( 3, 3| 4, 4) =    0.2792072321
 ( 3, 3| 4, 5) =    0.0000000000
 ( 3, 3| 5, 2) =    0.0000000000
 ( 3, 3| 5, 3) =    0.0000000000
 ( 3, 3| 5, 4) =    0.0000000000
 ( 3, 3| 5, 5) =    0.2792072321
 ( 3, 4| 2, 2) =    0.0000000000
 ( 3, 4| 2, 3) =    0.0000000000
 ( 3, 4| 2, 4) =    0.0000000000
 ( 3, 4| 2, 5) =    0.0000000000
 ( 3, 4| 3, 2) =    0.0000000000
 ( 3, 4| 3, 3) =    0.0000000000
 ( 3, 4| 3, 4) =    0.0168691395
 ( 3, 4| 3, 5) =    0.0000000000
 ( 3, 4| 4, 2) =    0.0000000000
 ( 3, 4| 4, 3) =    0.0168691395
 ( 3, 4| 4, 4) =    0.0000000000
 ( 3, 4| 4, 5) =    0.0000000000
 ( 3, 4| 5, 2) =    0.0000000000
 ( 3, 4| 5, 3) =    0.0000000000
 ( 3, 4| 5, 4) =    0.0000000000
 ( 3, 4| 5, 5) =    0.0000000000
 ( 3, 5| 2, 2) =    0.0000000000
 ( 3, 5| 2, 3) =    0.0000000000
 ( 3, 5| 2, 4) =    0.0000000000
 ( 3, 5| 2, 5) =    0.0000000000
 ( 3, 5| 3, 2) =    0.0000000000
 ( 3, 5| 3, 3) =    0.0000000000
 ( 3, 5| 3, 4) =    0.0000000000
 ( 3, 5| 3, 5) =    0.0168691395
 ( 3, 5| 4, 2) =    0.0000000000
 ( 3, 5| 4, 3) =    0.0000000000
 ( 3, 5| 4, 4) =    0.0000000000
 ( 3, 5| 4, 5) =    0.0000000000
 ( 3, 5| 5, 2) =    0.0000000000
 ( 3, 5| 5, 3) =    0.0168691395
 ( 3, 5| 5, 4) =    0.0000000000
 ( 3, 5| 5, 5) =    0.0000000000
 ( 4, 2| 2, 2) =    0.0000000000
 ( 4, 2| 2, 3) =    0.0000000000
 ( 4, 2| 2, 4) =    0.0641843286
 ( 4, 2| 2, 5) =    0.0000000000
 ( 4, 2| 3, 2) =    0.0000000000
 ( 4, 2| 3, 3) =    0.0000000000
 ( 4, 2| 3, 4) =    0.0000000000
 ( 4, 2| 3, 5) =    0.0000000000
 ( 4, 2| 4, 2) =    0.0641843286
 ( 4, 2| 4, 3) =    0.0000000000
 ( 4, 2| 4, 4) =    0.0000000000
 ( 4, 2| 4, 5) =    0.0000000000
 ( 4, 2| 5, 2) =    0.0000000000
 ( 4, 2| 5, 3) =    0.0000000000
 ( 4, 2| 5, 4) =    0.0000000000
 ( 4, 2| 5, 5) =    0.0000000000
 ( 4, 3| 2, 2) =    0.0000000000
 ( 4, 3| 2, 3) =    0.0000000000
 ( 4, 3| 2, 4) =    0.0000000000
 ( 4, 3| 2, 5) =    0.0000000000
 ( 4, 3| 3, 2) =    0.0000000000
 ( 4, 3| 3, 3) =    0.0000000000
 ( 4, 3| 3, 4) =    0.0168691395
 ( 4, 3| 3, 5) =    0.0000000000
 ( 4, 3| 4, 2) =    0.0000000000
 ( 4, 3| 4, 3) =    0.0168691395
 ( 4, 3| 4, 4) =    0.0000000000
 ( 4, 3| 4, 5) =    0.0000000000
 ( 4, 3| 5, 2) =    0.0000000000
 ( 4, 3| 5, 3) =    0.0000000000
 ( 4, 3| 5, 4) =    0.0000000000
 ( 4, 3| 5, 5) =    0.0000000000
 ( 4, 4| 2, 2) =    0.2904969756
 ( 4, 4| 2, 3) =    0.0000000000
 ( 4, 4| 2, 4) =    0.0000000000
 ( 4, 4| 2, 5) =    0.0000000000
 ( 4, 4| 3, 2) =    0.0000000000
 ( 4, 4| 3, 3) =    0.2792072321
 ( 4, 4| 3, 4) =    0.0000000000
 ( 4, 4| 3, 5) =    0.0000000000
 ( 4, 4| 4, 2) =    0.0000000000
 ( 4, 4| 4, 3) =    0.0000000000
 ( 4, 4| 4, 4) =    0.3129455112
 ( 4, 4| 4, 5) =    0.0000000000
 ( 4, 4| 5, 2) =    0.0000000000
 ( 4, 4| 5, 3) =    0.0000000000
 ( 4, 4| 5, 4) =    0.0000000000
 ( 4, 4| 5, 5) =    0.2792072321
 ( 4, 5| 2, 2) =    0.0000000000
 ( 4, 5| 2, 3) =    0.0000000000
 ( 4, 5| 2, 4) =    0.0000000000
 ( 4, 5| 2, 5) =    0.0000000000
 ( 4, 5| 3, 2) =    0.0000000000
 ( 4, 5| 3, 3) =    0.0000000000
 ( 4, 5| 3, 4) =    0.0000000000
 ( 4, 5| 3, 5) =    0.0000000000
 ( 4, 5| 4, 2) =    0.0000000000
 ( 4, 5| 4, 3) =    0.0000000000
 ( 4, 5| 4, 4) =    0.0000000000
 ( 4, 5| 4, 5) =    0.0168691395
 ( 4, 5| 5, 2) =    0.0000000000
 ( 4, 5| 5, 3) =    0.0000000000
 ( 4, 5| 5, 4) =    0.0168691395
 ( 4, 5| 5, 5) =    0.0000000000
 ( 5, 2| 2, 2) =    0.0000000000
 ( 5, 2| 2, 3) =    0.0000000000
 ( 5, 2| 2, 4) =    0.0000000000
 ( 5, 2| 2, 5) =    0.0641843286
 ( 5, 2| 3, 2) =    0.0000000000
 ( 5, 2| 3, 3) =    0.0000000000
 ( 5, 2| 3, 4) =    0.0000000000
 ( 5, 2| 3, 5) =    0.0000000000
 ( 5, 2| 4, 2) =    0.0000000000
 ( 5, 2| 4, 3) =    0.0000000000
 ( 5, 2| 4, 4) =    0.0000000000
 ( 5, 2| 4, 5) =    0.0000000000
 ( 5, 2| 5, 2) =    0.0641843286
 ( 5, 2| 5, 3) =    0.0000000000
 ( 5, 2| 5, 4) =    0.0000000000
 ( 5, 2| 5, 5) =    0.0000000000
 ( 5, 3| 2, 2) =    0.0000000000
 ( 5, 3| 2, 3) =    0.0000000000
 ( 5, 3| 2, 4) =    0.0000000000
 ( 5, 3| 2, 5) =    0.0000000000
 ( 5, 3| 3, 2) =    0.0000000000
 ( 5, 3| 3, 3) =    0.0000000000
 ( 5, 3| 3, 4) =    0.0000000000
 ( 5, 3| 3, 5) =    0.0168691395
 ( 5, 3| 4, 2) =    0.0000000000
 ( 5, 3| 4, 3) =    0.0000000000
 ( 5, 3| 4, 4) =    0.0000000000
 ( 5, 3| 4, 5) =    0.0000000000
 ( 5, 3| 5, 2) =    0.0000000000
 ( 5, 3| 5, 3) =    0.0168691395
 ( 5, 3| 5, 4) =    0.0000000000
 ( 5, 3| 5, 5) =    0.0000000000
 ( 5, 4| 2, 2) =    0.0000000000
 ( 5, 4| 2, 3) =    0.0000000000
 ( 5, 4| 2, 4) =    0.0000000000
 ( 5, 4| 2, 5) =    0.0000000000
 ( 5, 4| 3, 2) =    0.0000000000
 ( 5, 4| 3, 3) =    0.0000000000
 ( 5, 4| 3, 4) =    0.0000000000
 ( 5, 4| 3, 5) =    0.0000000000
 ( 5, 4| 4, 2) =    0.0000000000
 ( 5, 4| 4, 3) =    0.0000000000
 ( 5, 4| 4, 4) =    0.0000000000
 ( 5, 4| 4, 5) =    0.0168691395
 ( 5, 4| 5, 2) =    0.0000000000
 ( 5, 4| 5, 3) =    0.0000000000
 ( 5, 4| 5, 4) =    0.0168691395
 ( 5, 4| 5, 5) =    0.0000000000
 ( 5, 5| 2, 2) =    0.2904969756
 ( 5, 5| 2, 3) =    0.0000000000
 ( 5, 5| 2, 4) =    0.0000000000
 ( 5, 5| 2, 5) =    0.0000000000
 ( 5, 5| 3, 2) =    0.0000000000
 ( 5, 5| 3, 3) =    0.2792072321
 ( 5, 5| 3, 4) =    0.0000000000
 ( 5, 5| 3, 5) =    0.0000000000
 ( 5, 5| 4, 2) =    0.0000000000
 ( 5, 5| 4, 3) =    0.0000000000
 ( 5, 5| 4, 4) =    0.2792072321
 ( 5, 5| 4, 5) =    0.0000000000
 ( 5, 5| 5, 2) =    0.0000000000
 ( 5, 5| 5, 3) =    0.0000000000
 ( 5, 5| 5, 4) =    0.0000000000
 ( 5, 5| 5, 5) =    0.3129455112
    4      -7.3155222497      7.86E-04

 Q-Chem warning in module 0, line   71:

 AOINTS_DEBUG_PRINT=4

  *** Integrals not dumped for new Path2.  For full
  *** integral dump, compile with -DNO_NEW_PATH2 
 
 AOInts used (LenV =124999998) to compute the J vector and K matrices
 ( 1, 1| 1, 1) =    1.6803951695
 ( 1, 1| 2, 1) =    0.2654203646
 ( 1, 1| 3, 1) =    0.0000000000
 ( 1, 1| 4, 1) =    0.0000000000
 ( 1, 1| 5, 1) =    0.0000000000
 ( 1, 1| 2, 2) =    0.3977268611
 ( 1, 1| 2, 3) =    0.0000000000
 ( 1, 1| 2, 4) =    0.0000000000
 ( 1, 1| 2, 5) =    0.0000000000
 ( 1, 1| 3, 2) =    0.0000000000
 ( 1, 1| 3, 3) =    0.3966396423
 ( 1, 1| 3, 4) =    0.0000000000
 ( 1, 1| 3, 5) =    0.0000000000
 ( 1, 1| 4, 2) =    0.0000000000
 ( 1, 1| 4, 3) =    0.0000000000
 ( 1, 1| 4, 4) =    0.3966396423
 ( 1, 1| 4, 5) =    0.0000000000
 ( 1, 1| 5, 2) =    0.0000000000
 ( 1, 1| 5, 3) =    0.0000000000
 ( 1, 1| 5, 4) =    0.0000000000
 ( 1, 1| 5, 5) =    0.3966396423
 ( 2, 1| 2, 1) =    0.0499414572
 ( 2, 1| 3, 1) =    0.0000000000
 ( 2, 1| 4, 1) =    0.0000000000
 ( 2, 1| 5, 1) =    0.0000000000
 ( 3, 1| 2, 1) =    0.0000000000
 ( 3, 1| 3, 1) =    0.0089813193
 ( 3, 1| 4, 1) =    0.0000000000
 ( 3, 1| 5, 1) =    0.0000000000
 ( 4, 1| 2, 1) =    0.0000000000
 ( 4, 1| 3, 1) =    0.0000000000
 ( 4, 1| 4, 1) =    0.0089813193
 ( 4, 1| 5, 1) =    0.0000000000
 ( 5, 1| 2, 1) =    0.0000000000
 ( 5, 1| 3, 1) =    0.0000000000
 ( 5, 1| 4, 1) =    0.0000000000
 ( 5, 1| 5, 1) =    0.0089813193
 ( 2, 1| 2, 2) =    0.0928601436
 ( 2, 1| 2, 3) =    0.0000000000
 ( 2, 1| 2, 4) =    0.0000000000
 ( 2, 1| 2, 5) =    0.0000000000
 ( 2, 1| 3, 2) =    0.0000000000
 ( 2, 1| 3, 3) =    0.0928803968
 ( 2, 1| 3, 4) =    0.0000000000
 ( 2, 1| 3, 5) =    0.0000000000
 ( 2, 1| 4, 2) =    0.0000000000
 ( 2, 1| 4, 3) =    0.0000000000
 ( 2, 1| 4, 4) =    0.0928803968
 ( 2, 1| 4, 5) =    0.0000000000
 ( 2, 1| 5, 2) =    0.0000000000
 ( 2, 1| 5, 3) =    0.0000000000
 ( 2, 1| 5, 4) =    0.0000000000
 ( 2, 1| 5, 5) =    0.0928803968
 ( 3, 1| 2, 2) =    0.0000000000
 ( 3, 1| 2, 3) =    0.0137882689
 ( 3, 1| 2, 4) =    0.0000000000
 ( 3, 1| 2, 5) =    0.0000000000
 ( 3, 1| 3, 2) =    0.0137882689
 ( 3, 1| 3, 3) =    0.0000000000
 ( 3, 1| 3, 4) =    0.0000000000
 ( 3, 1| 3, 5) =    0.0000000000
 ( 3, 1| 4, 2) =    0.0000000000
 ( 3, 1| 4, 3) =    0.0000000000
 ( 3, 1| 4, 4) =    0.0000000000
 ( 3, 1| 4, 5) =    0.0000000000
 ( 3, 1| 5, 2) =    0.0000000000
 ( 3, 1| 5, 3) =    0.0000000000
 ( 3, 1| 5, 4) =    0.0000000000
 ( 3, 1| 5, 5) =    0.0000000000
 ( 4, 1| 2, 2) =    0.0000000000
 ( 4, 1| 2, 3) =    0.0000000000
 ( 4, 1| 2, 4) =    0.0137882689
 ( 4, 1| 2, 5) =    0.0000000000
 ( 4, 1| 3, 2) =    0.0000000000
 ( 4, 1| 3, 3) =    0.0000000000
 ( 4, 1| 3, 4) =    0.0000000000
 ( 4, 1| 3, 5) =    0.0000000000
 ( 4, 1| 4, 2) =    0.0137882689
 ( 4, 1| 4, 3) =    0.0000000000
 ( 4, 1| 4, 4) =    0.0000000000
 ( 4, 1| 4, 5) =    0.0000000000
 ( 4, 1| 5, 2) =    0.0000000000
 ( 4, 1| 5, 3) =    0.0000000000
 ( 4, 1| 5, 4) =    0.0000000000
 ( 4, 1| 5, 5) =    0.0000000000
 ( 5, 1| 2, 2) =    0.0000000000
 ( 5, 1| 2, 3) =    0.0000000000
 ( 5, 1| 2, 4) =    0.0000000000
 ( 5, 1| 2, 5) =    0.0137882689
 ( 5, 1| 3, 2) =    0.0000000000
 ( 5, 1| 3, 3) =    0.0000000000
 ( 5, 1| 3, 4) =    0.0000000000
 ( 5, 1| 3, 5) =    0.0000000000
 ( 5, 1| 4, 2) =    0.0000000000
 ( 5, 1| 4, 3) =    0.0000000000
 ( 5, 1| 4, 4) =    0.0000000000
 ( 5, 1| 4, 5) =    0.0000000000
 ( 5, 1| 5, 2) =    0.0137882689
 ( 5, 1| 5, 3) =    0.0000000000
 ( 5, 1| 5, 4) =    0.0000000000
 ( 5, 1| 5, 5) =    0.0000000000
 ( 2, 2| 2, 2) =    0.2905622950
 ( 2, 2| 2, 3) =    0.0000000000
 ( 2, 2| 2, 4) =    0.0000000000
 ( 2, 2| 2, 5) =    0.0000000000
 ( 2, 2| 3, 2) =    0.0000000000
 ( 2, 2| 3, 3) =    0.2904969756
 ( 2, 2| 3, 4) =    0.0000000000
 ( 2, 2| 3, 5) =    0.0000000000
 ( 2, 2| 4, 2) =    0.0000000000
 ( 2, 2| 4, 3) =    0.0000000000
 ( 2, 2| 4, 4) =    0.2904969756
 ( 2, 2| 4, 5) =    0.0000000000
 ( 2, 2| 5, 2) =    0.0000000000
 ( 2, 2| 5, 3) =    0.0000000000
 ( 2, 2| 5, 4) =    0.0000000000
 ( 2, 2| 5, 5) =    0.2904969756
 ( 2, 3| 2, 2) =    0.0000000000
 ( 2, 3| 2, 3) =    0.0641843286
 ( 2, 3| 2, 4) =    0.0000000000
 ( 2, 3| 2, 5) =    0.0000000000
 ( 2, 3| 3, 2) =    0.0641843286
 ( 2, 3| 3, 3) =    0.0000000000
 ( 2, 3| 3, 4) =    0.0000000000
 ( 2, 3| 3, 5) =    0.0000000000
 ( 2, 3| 4, 2) =    0.0000000000
 ( 2, 3| 4, 3) =    0.0000000000
 ( 2, 3| 4, 4) =    0.0000000000
 ( 2, 3| 4, 5) =    0.0000000000
 ( 2, 3| 5, 2) =    0.0000000000
 ( 2, 3| 5, 3) =    0.0000000000
 ( 2, 3| 5, 4) =    0.0000000000
 ( 2, 3| 5, 5) =    0.0000000000
 ( 2, 4| 2, 2) =    0.0000000000
 ( 2, 4| 2, 3) =    0.0000000000
 ( 2, 4| 2, 4) =    0.0641843286
 ( 2, 4| 2, 5) =    0.0000000000
 ( 2, 4| 3, 2) =    0.0000000000
 ( 2, 4| 3, 3) =    0.0000000000
 ( 2, 4| 3, 4) =    0.0000000000
 ( 2, 4| 3, 5) =    0.0000000000
 ( 2, 4| 4, 2) =    0.0641843286
 ( 2, 4| 4, 3) =    0.0000000000
 ( 2, 4| 4, 4) =    0.0000000000
 ( 2, 4| 4, 5) =    0.0000000000
 ( 2, 4| 5, 2) =    0.0000000000
 ( 2, 4| 5, 3) =    0.0000000000
 ( 2, 4| 5, 4) =    0.0000000000
 ( 2, 4| 5, 5) =    0.0000000000
 ( 2, 5| 2, 2) =    0.0000000000
 ( 2, 5| 2, 3) =    0.0000000000
 ( 2, 5| 2, 4) =    0.0000000000
 ( 2, 5| 2, 5) =    0.0641843286
 ( 2, 5| 3, 2) =    0.0000000000
 ( 2, 5| 3, 3) =    0.0000000000
 ( 2, 5| 3, 4) =    0.0000000000
 ( 2, 5| 3, 5) =    0.0000000000
 ( 2, 5| 4, 2) =    0.0000000000
 ( 2, 5| 4, 3) =    0.0000000000
 ( 2, 5| 4, 4) =    0.0000000000
 ( 2, 5| 4, 5) =    0.0000000000
 ( 2, 5| 5, 2) =    0.0641843286
 ( 2, 5| 5, 3) =    0.0000000000
 ( 2, 5| 5, 4) =    0.0000000000
 ( 2, 5| 5, 5) =    0.0000000000
 ( 3, 2| 2, 2) =    0.0000000000
 ( 3, 2| 2, 3) =    0.0641843286
 ( 3, 2| 2, 4) =    0.0000000000
 ( 3, 2| 2, 5) =    0.0000000000
 ( 3, 2| 3, 2) =    0.0641843286
 ( 3, 2| 3, 3) =    0.0000000000
 ( 3, 2| 3, 4) =    0.0000000000
 ( 3, 2| 3, 5) =    0.0000000000
 ( 3, 2| 4, 2) =    0.0000000000
 ( 3, 2| 4, 3) =    0.0000000000
 ( 3, 2| 4, 4) =    0.0000000000
 ( 3, 2| 4, 5) =    0.0000000000
 ( 3, 2| 5, 2) =    0.0000000000
 ( 3, 2| 5, 3) =    0.0000000000
 ( 3, 2| 5, 4) =    0.0000000000
 ( 3, 2| 5, 5) =    0.0000000000
 ( 3, 3| 2, 2) =    0.2904969756
 ( 3, 3| 2, 3) =    0.0000000000
 ( 3, 3| 2, 4) =    0.0000000000
 ( 3, 3| 2, 5) =    0.0000000000
 ( 3, 3| 3, 2) =    0.0000000000
 ( 3, 3| 3, 3) =    0.3129455112
 ( 3, 3| 3, 4) =    0.0000000000
 ( 3, 3| 3, 5) =    0.0000000000
 ( 3, 3| 4, 2) =    0.0000000000
 ( 3, 3| 4, 3) =    0.0000000000
 ( 3, 3| 4, 4) =    0.2792072321
 ( 3, 3| 4, 5) =    0.0000000000
 ( 3, 3| 5, 2) =    0.0000000000
 ( 3, 3| 5, 3) =    0.0000000000
 ( 3, 3| 5, 4) =    0.0000000000
 ( 3, 3| 5, 5) =    0.2792072321
 ( 3, 4| 2, 2) =    0.0000000000
 ( 3, 4| 2, 3) =    0.0000000000
 ( 3, 4| 2, 4) =    0.0000000000
 ( 3, 4| 2, 5) =    0.0000000000
 ( 3, 4| 3, 2) =    0.0000000000
 ( 3, 4| 3, 3) =    0.0000000000
 ( 3, 4| 3, 4) =    0.0168691395
 ( 3, 4| 3, 5) =    0.0000000000
 ( 3, 4| 4, 2) =    0.0000000000
 ( 3, 4| 4, 3) =    0.0168691395
 ( 3, 4| 4, 4) =    0.0000000000
 ( 3, 4| 4, 5) =    0.0000000000
 ( 3, 4| 5, 2) =    0.0000000000
 ( 3, 4| 5, 3) =    0.0000000000
 ( 3, 4| 5, 4) =    0.0000000000
 ( 3, 4| 5, 5) =    0.0000000000
 ( 3, 5| 2, 2) =    0.0000000000
 ( 3, 5| 2, 3) =    0.0000000000
 ( 3, 5| 2, 4) =    0.0000000000
 ( 3, 5| 2, 5) =    0.0000000000
 ( 3, 5| 3, 2) =    0.0000000000
 ( 3, 5| 3, 3) =    0.0000000000
 ( 3, 5| 3, 4) =    0.0000000000
 ( 3, 5| 3, 5) =    0.0168691395
 ( 3, 5| 4, 2) =    0.0000000000
 ( 3, 5| 4, 3) =    0.0000000000
 ( 3, 5| 4, 4) =    0.0000000000
 ( 3, 5| 4, 5) =    0.0000000000
 ( 3, 5| 5, 2) =    0.0000000000
 ( 3, 5| 5, 3) =    0.0168691395
 ( 3, 5| 5, 4) =    0.0000000000
 ( 3, 5| 5, 5) =    0.0000000000
 ( 4, 2| 2, 2) =    0.0000000000
 ( 4, 2| 2, 3) =    0.0000000000
 ( 4, 2| 2, 4) =    0.0641843286
 ( 4, 2| 2, 5) =    0.0000000000
 ( 4, 2| 3, 2) =    0.0000000000
 ( 4, 2| 3, 3) =    0.0000000000
 ( 4, 2| 3, 4) =    0.0000000000
 ( 4, 2| 3, 5) =    0.0000000000
 ( 4, 2| 4, 2) =    0.0641843286
 ( 4, 2| 4, 3) =    0.0000000000
 ( 4, 2| 4, 4) =    0.0000000000
 ( 4, 2| 4, 5) =    0.0000000000
 ( 4, 2| 5, 2) =    0.0000000000
 ( 4, 2| 5, 3) =    0.0000000000
 ( 4, 2| 5, 4) =    0.0000000000
 ( 4, 2| 5, 5) =    0.0000000000
 ( 4, 3| 2, 2) =    0.0000000000
 ( 4, 3| 2, 3) =    0.0000000000
 ( 4, 3| 2, 4) =    0.0000000000
 ( 4, 3| 2, 5) =    0.0000000000
 ( 4, 3| 3, 2) =    0.0000000000
 ( 4, 3| 3, 3) =    0.0000000000
 ( 4, 3| 3, 4) =    0.0168691395
 ( 4, 3| 3, 5) =    0.0000000000
 ( 4, 3| 4, 2) =    0.0000000000
 ( 4, 3| 4, 3) =    0.0168691395
 ( 4, 3| 4, 4) =    0.0000000000
 ( 4, 3| 4, 5) =    0.0000000000
 ( 4, 3| 5, 2) =    0.0000000000
 ( 4, 3| 5, 3) =    0.0000000000
 ( 4, 3| 5, 4) =    0.0000000000
 ( 4, 3| 5, 5) =    0.0000000000
 ( 4, 4| 2, 2) =    0.2904969756
 ( 4, 4| 2, 3) =    0.0000000000
 ( 4, 4| 2, 4) =    0.0000000000
 ( 4, 4| 2, 5) =    0.0000000000
 ( 4, 4| 3, 2) =    0.0000000000
 ( 4, 4| 3, 3) =    0.2792072321
 ( 4, 4| 3, 4) =    0.0000000000
 ( 4, 4| 3, 5) =    0.0000000000
 ( 4, 4| 4, 2) =    0.0000000000
 ( 4, 4| 4, 3) =    0.0000000000
 ( 4, 4| 4, 4) =    0.3129455112
 ( 4, 4| 4, 5) =    0.0000000000
 ( 4, 4| 5, 2) =    0.0000000000
 ( 4, 4| 5, 3) =    0.0000000000
 ( 4, 4| 5, 4) =    0.0000000000
 ( 4, 4| 5, 5) =    0.2792072321
 ( 4, 5| 2, 2) =    0.0000000000
 ( 4, 5| 2, 3) =    0.0000000000
 ( 4, 5| 2, 4) =    0.0000000000
 ( 4, 5| 2, 5) =    0.0000000000
 ( 4, 5| 3, 2) =    0.0000000000
 ( 4, 5| 3, 3) =    0.0000000000
 ( 4, 5| 3, 4) =    0.0000000000
 ( 4, 5| 3, 5) =    0.0000000000
 ( 4, 5| 4, 2) =    0.0000000000
 ( 4, 5| 4, 3) =    0.0000000000
 ( 4, 5| 4, 4) =    0.0000000000
 ( 4, 5| 4, 5) =    0.0168691395
 ( 4, 5| 5, 2) =    0.0000000000
 ( 4, 5| 5, 3) =    0.0000000000
 ( 4, 5| 5, 4) =    0.0168691395
 ( 4, 5| 5, 5) =    0.0000000000
 ( 5, 2| 2, 2) =    0.0000000000
 ( 5, 2| 2, 3) =    0.0000000000
 ( 5, 2| 2, 4) =    0.0000000000
 ( 5, 2| 2, 5) =    0.0641843286
 ( 5, 2| 3, 2) =    0.0000000000
 ( 5, 2| 3, 3) =    0.0000000000
 ( 5, 2| 3, 4) =    0.0000000000
 ( 5, 2| 3, 5) =    0.0000000000
 ( 5, 2| 4, 2) =    0.0000000000
 ( 5, 2| 4, 3) =    0.0000000000
 ( 5, 2| 4, 4) =    0.0000000000
 ( 5, 2| 4, 5) =    0.0000000000
 ( 5, 2| 5, 2) =    0.0641843286
 ( 5, 2| 5, 3) =    0.0000000000
 ( 5, 2| 5, 4) =    0.0000000000
 ( 5, 2| 5, 5) =    0.0000000000
 ( 5, 3| 2, 2) =    0.0000000000
 ( 5, 3| 2, 3) =    0.0000000000
 ( 5, 3| 2, 4) =    0.0000000000
 ( 5, 3| 2, 5) =    0.0000000000
 ( 5, 3| 3, 2) =    0.0000000000
 ( 5, 3| 3, 3) =    0.0000000000
 ( 5, 3| 3, 4) =    0.0000000000
 ( 5, 3| 3, 5) =    0.0168691395
 ( 5, 3| 4, 2) =    0.0000000000
 ( 5, 3| 4, 3) =    0.0000000000
 ( 5, 3| 4, 4) =    0.0000000000
 ( 5, 3| 4, 5) =    0.0000000000
 ( 5, 3| 5, 2) =    0.0000000000
 ( 5, 3| 5, 3) =    0.0168691395
 ( 5, 3| 5, 4) =    0.0000000000
 ( 5, 3| 5, 5) =    0.0000000000
 ( 5, 4| 2, 2) =    0.0000000000
 ( 5, 4| 2, 3) =    0.0000000000
 ( 5, 4| 2, 4) =    0.0000000000
 ( 5, 4| 2, 5) =    0.0000000000
 ( 5, 4| 3, 2) =    0.0000000000
 ( 5, 4| 3, 3) =    0.0000000000
 ( 5, 4| 3, 4) =    0.0000000000
 ( 5, 4| 3, 5) =    0.0000000000
 ( 5, 4| 4, 2) =    0.0000000000
 ( 5, 4| 4, 3) =    0.0000000000
 ( 5, 4| 4, 4) =    0.0000000000
 ( 5, 4| 4, 5) =    0.0168691395
 ( 5, 4| 5, 2) =    0.0000000000
 ( 5, 4| 5, 3) =    0.0000000000
 ( 5, 4| 5, 4) =    0.0168691395
 ( 5, 4| 5, 5) =    0.0000000000
 ( 5, 5| 2, 2) =    0.2904969756
 ( 5, 5| 2, 3) =    0.0000000000
 ( 5, 5| 2, 4) =    0.0000000000
 ( 5, 5| 2, 5) =    0.0000000000
 ( 5, 5| 3, 2) =    0.0000000000
 ( 5, 5| 3, 3) =    0.2792072321
 ( 5, 5| 3, 4) =    0.0000000000
 ( 5, 5| 3, 5) =    0.0000000000
 ( 5, 5| 4, 2) =    0.0000000000
 ( 5, 5| 4, 3) =    0.0000000000
 ( 5, 5| 4, 4) =    0.2792072321
 ( 5, 5| 4, 5) =    0.0000000000
 ( 5, 5| 5, 2) =    0.0000000000
 ( 5, 5| 5, 3) =    0.0000000000
 ( 5, 5| 5, 4) =    0.0000000000
 ( 5, 5| 5, 5) =    0.3129455112
    5      -7.3155258958      1.19E-04

 Q-Chem warning in module 0, line   71:

 AOINTS_DEBUG_PRINT=4

  *** Integrals not dumped for new Path2.  For full
  *** integral dump, compile with -DNO_NEW_PATH2 
 
 AOInts used (LenV =124999998) to compute the J vector and K matrices
 ( 1, 1| 1, 1) =    1.6803951695
 ( 1, 1| 2, 1) =    0.2654203646
 ( 1, 1| 3, 1) =    0.0000000000
 ( 1, 1| 4, 1) =    0.0000000000
 ( 1, 1| 5, 1) =    0.0000000000
 ( 1, 1| 2, 2) =    0.3977268611
 ( 1, 1| 2, 3) =    0.0000000000
 ( 1, 1| 2, 4) =    0.0000000000
 ( 1, 1| 2, 5) =    0.0000000000
 ( 1, 1| 3, 2) =    0.0000000000
 ( 1, 1| 3, 3) =    0.3966396423
 ( 1, 1| 3, 4) =    0.0000000000
 ( 1, 1| 3, 5) =    0.0000000000
 ( 1, 1| 4, 2) =    0.0000000000
 ( 1, 1| 4, 3) =    0.0000000000
 ( 1, 1| 4, 4) =    0.3966396423
 ( 1, 1| 4, 5) =    0.0000000000
 ( 1, 1| 5, 2) =    0.0000000000
 ( 1, 1| 5, 3) =    0.0000000000
 ( 1, 1| 5, 4) =    0.0000000000
 ( 1, 1| 5, 5) =    0.3966396423
 ( 2, 1| 2, 1) =    0.0499414572
 ( 2, 1| 3, 1) =    0.0000000000
 ( 2, 1| 4, 1) =    0.0000000000
 ( 2, 1| 5, 1) =    0.0000000000
 ( 3, 1| 2, 1) =    0.0000000000
 ( 3, 1| 3, 1) =    0.0089813193
 ( 3, 1| 4, 1) =    0.0000000000
 ( 3, 1| 5, 1) =    0.0000000000
 ( 4, 1| 2, 1) =    0.0000000000
 ( 4, 1| 3, 1) =    0.0000000000
 ( 4, 1| 4, 1) =    0.0089813193
 ( 4, 1| 5, 1) =    0.0000000000
 ( 5, 1| 2, 1) =    0.0000000000
 ( 5, 1| 3, 1) =    0.0000000000
 ( 5, 1| 4, 1) =    0.0000000000
 ( 5, 1| 5, 1) =    0.0089813193
 ( 2, 1| 2, 2) =    0.0928601436
 ( 2, 1| 2, 3) =    0.0000000000
 ( 2, 1| 2, 4) =    0.0000000000
 ( 2, 1| 2, 5) =    0.0000000000
 ( 2, 1| 3, 2) =    0.0000000000
 ( 2, 1| 3, 3) =    0.0928803968
 ( 2, 1| 3, 4) =    0.0000000000
 ( 2, 1| 3, 5) =    0.0000000000
 ( 2, 1| 4, 2) =    0.0000000000
 ( 2, 1| 4, 3) =    0.0000000000
 ( 2, 1| 4, 4) =    0.0928803968
 ( 2, 1| 4, 5) =    0.0000000000
 ( 2, 1| 5, 2) =    0.0000000000
 ( 2, 1| 5, 3) =    0.0000000000
 ( 2, 1| 5, 4) =    0.0000000000
 ( 2, 1| 5, 5) =    0.0928803968
 ( 3, 1| 2, 2) =    0.0000000000
 ( 3, 1| 2, 3) =    0.0137882689
 ( 3, 1| 2, 4) =    0.0000000000
 ( 3, 1| 2, 5) =    0.0000000000
 ( 3, 1| 3, 2) =    0.0137882689
 ( 3, 1| 3, 3) =    0.0000000000
 ( 3, 1| 3, 4) =    0.0000000000
 ( 3, 1| 3, 5) =    0.0000000000
 ( 3, 1| 4, 2) =    0.0000000000
[...]
 ( 5, 4| 5, 3) =    0.0000000000
 ( 5, 4| 5, 4) =    0.0168691395
 ( 5, 4| 5, 5) =    0.0000000000
 ( 5, 5| 2, 2) =    0.2904969756
 ( 5, 5| 2, 3) =    0.0000000000
 ( 5, 5| 2, 4) =    0.0000000000
 ( 5, 5| 2, 5) =    0.0000000000
 ( 5, 5| 3, 2) =    0.0000000000
 ( 5, 5| 3, 3) =    0.2792072321
 ( 5, 5| 3, 4) =    0.0000000000
 ( 5, 5| 3, 5) =    0.0000000000
 ( 5, 5| 4, 2) =    0.0000000000
 ( 5, 5| 4, 3) =    0.0000000000
 ( 5, 5| 4, 4) =    0.2792072321
 ( 5, 5| 4, 5) =    0.0000000000
 ( 5, 5| 5, 2) =    0.0000000000
 ( 5, 5| 5, 3) =    0.0000000000
 ( 5, 5| 5, 4) =    0.0000000000
 ( 5, 5| 5, 5) =    0.3129455112
    6      -7.3155259813      1.29E-16 Convergence criterion met
 ---------------------------------------
 One-Electron    Energy =    -9.7438984944
 Total Coulomb   Energy =     4.2594444114
 Alpha Exchange  Energy =    -1.0017746760
 Beta  Exchange  Energy =    -0.8292972222
 DFT   Exchange  Energy =     0.0000000000
 DFT Correlation Energy =     0.0000000000
 Nuclear Repu.   Energy =     0.0000000000
 Nuclear Attr.   Energy =   -17.1733229151
 Kinetic         Energy =     7.4294244207
 <S^2> = 0.7500
 SCF time:  CPU 0.02 s  wall 0.02 s
 Final Alpha MO Eigenvalues
            1           2           3           4           5
    1  -2.3691714  -0.1801240   0.1301263   0.1301263   0.1301263
 Final Alpha MO Coefficients
            1           2           3           4           5
    1   0.9925278  -0.2768128   0.0000000   0.0000000   0.0000000
    2   0.0293096   1.0299891   0.0000000   0.0000000   0.0000000
    3   0.0000000   0.0000000   0.0000000   1.0000000   0.0000000
    4   0.0000000   0.0000000   1.0000000   0.0000000   0.0000000
    5   0.0000000   0.0000000   0.0000000   0.0000000   1.0000000
 Final Alpha density matrix.
            1           2           3           4           5
    1   1.0617367  -0.2560236   0.0000000   0.0000000   0.0000000
    2  -0.2560236   1.0617367   0.0000000   0.0000000   0.0000000
    3   0.0000000   0.0000000   0.0000000   0.0000000   0.0000000
    4   0.0000000   0.0000000   0.0000000   0.0000000   0.0000000
    5   0.0000000   0.0000000   0.0000000   0.0000000   0.0000000
 Final Alpha Fock Matrix
               1               2               3               4
    1   -2.3674002217   -0.6312718266    0.0000000000    0.0000000000
    2   -0.6312718266   -0.3381070866    0.0000000000    0.0000000000
    3    0.0000000000    0.0000000000    0.1301262686    0.0000000000
    4    0.0000000000    0.0000000000    0.0000000000    0.1301262681
    5    0.0000000000    0.0000000000    0.0000000000    0.0000000000
               5
    1    0.0000000000
    2    0.0000000000
    3    0.0000000000
    4    0.0000000000
    5    0.1301262704
 Core Hamiltonian Matrix
           1         2         3         4         5
    1  -4.40609  -0.98458   0.00000   0.00000   0.00000
    2  -0.98458  -1.10476   0.00000   0.00000   0.00000
    3   0.00000   0.00000  -0.87758   0.00000   0.00000
    4   0.00000   0.00000   0.00000  -0.87758   0.00000
    5   0.00000   0.00000   0.00000   0.00000  -0.87758
 Orthonormalization Matrix
           1         2         3         4         5
    1   1.02278  -0.12516   0.00000   0.00000   0.00000
    2  -0.12516   1.02278   0.00000   0.00000   0.00000
    3   0.00000   0.00000   1.00000   0.00000   0.00000
    4   0.00000   0.00000   0.00000   1.00000   0.00000
    5   0.00000   0.00000   0.00000   0.00000   1.00000
 Overlap Matrix
             1             2             3             4             5
    1    1.00000000    0.24113665    0.00000000    0.00000000    0.00000000
    2    0.24113665    1.00000000    0.00000000    0.00000000    0.00000000
    3    0.00000000    0.00000000    1.00000000    0.00000000    0.00000000
    4    0.00000000    0.00000000    0.00000000    1.00000000    0.00000000
    5    0.00000000    0.00000000    0.00000000    0.00000000    1.00000000
 Kinetic Energy Matrix
           1         2         3         4         5
    1   3.57679  -0.02024   0.00000   0.00000   0.00000
    2  -0.02024   0.10216   0.00000   0.00000   0.00000
    3   0.00000   0.00000   0.31968   0.00000   0.00000
    4   0.00000   0.00000   0.00000   0.31968   0.00000
    5   0.00000   0.00000   0.00000   0.00000   0.31968
 Nuclear Attraction Matrix
           1         2         3         4         5
    1  -7.98288  -0.96434   0.00000   0.00000   0.00000
    2  -0.96434  -1.20692   0.00000   0.00000   0.00000
    3   0.00000   0.00000  -1.19726   0.00000   0.00000
    4   0.00000   0.00000   0.00000  -1.19726   0.00000
    5   0.00000   0.00000   0.00000   0.00000  -1.19726
 Multipole Matrix (1,0,0)
           1         2         3         4         5
    1   0.00000   0.00000   0.14724   0.00000   0.00000
    2   0.00000   0.00000   1.80330   0.00000   0.00000
    3   0.14724   1.80330   0.00000   0.00000   0.00000
    4   0.00000   0.00000   0.00000   0.00000   0.00000
    5   0.00000   0.00000   0.00000   0.00000   0.00000
 Multipole Matrix (0,1,0)
           1         2         3         4         5
    1   0.00000   0.00000   0.00000   0.14724   0.00000
    2   0.00000   0.00000   0.00000   1.80330   0.00000
    3   0.00000   0.00000   0.00000   0.00000   0.00000
    4   0.14724   1.80330   0.00000   0.00000   0.00000
    5   0.00000   0.00000   0.00000   0.00000   0.00000
 Multipole Matrix (0,0,1)
           1         2         3         4         5
    1   0.00000   0.00000   0.00000   0.00000   0.14724
    2   0.00000   0.00000   0.00000   0.00000   1.80330
    3   0.00000   0.00000   0.00000   0.00000   0.00000
    4   0.00000   0.00000   0.00000   0.00000   0.00000
    5   0.14724   1.80330   0.00000   0.00000   0.00000
 Multipole Matrix (2,0,0)
           1         2         3         4         5
    1   0.13802   0.11421   0.00000   0.00000   0.00000
    2   0.11421   3.88914   0.00000   0.00000   0.00000
    3   0.00000   0.00000   7.05010   0.00000   0.00000
    4   0.00000   0.00000   0.00000   2.35003   0.00000
    5   0.00000   0.00000   0.00000   0.00000   2.35003
 Multipole Matrix (1,1,0)
           1         2         3         4         5
    1   0.00000   0.00000   0.00000   0.00000   0.00000
    2   0.00000   0.00000   0.00000   0.00000   0.00000
    3   0.00000   0.00000   0.00000   2.35003   0.00000
    4   0.00000   0.00000   2.35003   0.00000   0.00000
    5   0.00000   0.00000   0.00000   0.00000   0.00000
 Multipole Matrix (0,2,0)
           1         2         3         4         5
    1   0.13802   0.11421   0.00000   0.00000   0.00000
    2   0.11421   3.88914   0.00000   0.00000   0.00000
    3   0.00000   0.00000   2.35003   0.00000   0.00000
    4   0.00000   0.00000   0.00000   7.05010   0.00000
    5   0.00000   0.00000   0.00000   0.00000   2.35003
 Multipole Matrix (1,0,1)
           1         2         3         4         5
    1   0.00000   0.00000   0.00000   0.00000   0.00000
    2   0.00000   0.00000   0.00000   0.00000   0.00000
    3   0.00000   0.00000   0.00000   0.00000   2.35003
    4   0.00000   0.00000   0.00000   0.00000   0.00000
    5   0.00000   0.00000   2.35003   0.00000   0.00000
 Multipole Matrix (0,1,1)
           1         2         3         4         5
    1   0.00000   0.00000   0.00000   0.00000   0.00000
    2   0.00000   0.00000   0.00000   0.00000   0.00000
    3   0.00000   0.00000   0.00000   0.00000   0.00000
    4   0.00000   0.00000   0.00000   0.00000   2.35003
    5   0.00000   0.00000   0.00000   2.35003   0.00000
 Multipole Matrix (0,0,2)
           1         2         3         4         5
    1   0.13802   0.11421   0.00000   0.00000   0.00000
    2   0.11421   3.88914   0.00000   0.00000   0.00000
    3   0.00000   0.00000   2.35003   0.00000   0.00000
    4   0.00000   0.00000   0.00000   2.35003   0.00000
    5   0.00000   0.00000   0.00000   0.00000   7.05010

 Q-Chem warning in module 0, line   71:

 AOINTS_DEBUG_PRINT=4

  *** Integrals not dumped for new Path2.  For full
  *** integral dump, compile with -DNO_NEW_PATH2 
 
 AOInts used (LenV =124999998) to compute the 1-e spin-orbit ints
 d2( 1, 1| 0) =-14.234  0.000-14.234  0.000  0.000-14.234
             AB =  5.795  0.000  0.000  0.000  5.795  0.000  0.000  0.000  5.795
             BB =-14.234  0.000-14.234  0.000  0.000-14.234
 d2( 2, 1| 0) =  0.067  0.000  0.067  0.000  0.000  0.067
             AB = -0.035  0.000  0.000  0.000 -0.035  0.000  0.000  0.000 -0.035
             BB = -0.572  0.000 -0.572  0.000  0.000 -0.572
 d2( 3, 1| 0) =  0.000  0.000  0.000  0.000  0.000  0.000
             AB =  0.000  0.000  0.000  0.000  0.000  0.000  0.000  0.000  0.000
             BB =  0.000  0.000  0.000  0.000  0.000  0.000
 d2( 4, 1| 0) =  0.000  0.000  0.000  0.000  0.000  0.000
             AB =  0.000  0.000  0.000  0.000  0.000  0.000  0.000  0.000  0.000
             BB =  0.000  0.000  0.000  0.000  0.000  0.000
 d2( 5, 1| 0) =  0.000  0.000  0.000  0.000  0.000  0.000
             AB =  0.000  0.000  0.000  0.000  0.000  0.000  0.000  0.000  0.000
             BB =  0.000  0.000  0.000  0.000  0.000  0.000
 d2( 2, 2| 0) = -0.029  0.000 -0.029  0.000  0.000 -0.029
             AB =  0.020  0.000  0.000  0.000  0.020  0.000  0.000  0.000  0.020
             BB = -0.029  0.000 -0.029  0.000  0.000 -0.029
 d2( 2, 3| 0) =  0.000  0.000  0.000  0.000  0.000  0.000
             AB =  0.000  0.000  0.000  0.000  0.000  0.000  0.000  0.000  0.000
             BB =  0.000  0.000  0.000  0.000  0.000  0.000
 d2( 2, 4| 0) =  0.000  0.000  0.000  0.000  0.000  0.000
             AB =  0.000  0.000  0.000  0.000  0.000  0.000  0.000  0.000  0.000
             BB =  0.000  0.000  0.000  0.000  0.000  0.000
 d2( 2, 5| 0) =  0.000  0.000  0.000  0.000  0.000  0.000
             AB =  0.000  0.000  0.000  0.000  0.000  0.000  0.000  0.000  0.000
             BB =  0.000  0.000  0.000  0.000  0.000  0.000
 d2( 3, 2| 0) =  0.000  0.000  0.000  0.000  0.000  0.000
             AB =  0.000  0.000  0.000  0.000  0.000  0.000  0.000  0.000  0.000
             BB =  0.000  0.000  0.000  0.000  0.000  0.000
 d2( 3, 3| 0) = -0.246  0.000 -0.082  0.000  0.000 -0.082
             AB =  0.310  0.000  0.000  0.000  0.050  0.000  0.000  0.000  0.050
             BB = -0.246  0.000 -0.082  0.000  0.000 -0.082
 d2( 3, 4| 0) =  0.000 -0.082  0.000  0.000  0.000  0.000
             AB =  0.000  0.209  0.000  0.050  0.000  0.000  0.000  0.000  0.000
             BB =  0.000 -0.082  0.000  0.000  0.000  0.000
 d2( 3, 5| 0) =  0.000  0.000  0.000 -0.082  0.000  0.000
             AB =  0.000  0.000  0.209  0.000  0.000  0.000  0.050  0.000  0.000
             BB =  0.000  0.000  0.000 -0.082  0.000  0.000
 d2( 4, 2| 0) =  0.000  0.000  0.000  0.000  0.000  0.000
             AB =  0.000  0.000  0.000  0.000  0.000  0.000  0.000  0.000  0.000
             BB =  0.000  0.000  0.000  0.000  0.000  0.000
 d2( 4, 3| 0) =  0.000 -0.082  0.000  0.000  0.000  0.000
             AB =  0.000  0.050  0.000  0.209  0.000  0.000  0.000  0.000  0.000
             BB =  0.000 -0.082  0.000  0.000  0.000  0.000
 d2( 4, 4| 0) = -0.082  0.000 -0.246  0.000  0.000 -0.082
             AB =  0.050  0.000  0.000  0.000  0.310  0.000  0.000  0.000  0.050
             BB = -0.082  0.000 -0.246  0.000  0.000 -0.082
 d2( 4, 5| 0) =  0.000  0.000  0.000  0.000 -0.082  0.000
             AB =  0.000  0.000  0.000  0.000  0.000  0.209  0.000  0.050  0.000
             BB =  0.000  0.000  0.000  0.000 -0.082  0.000
 d2( 5, 2| 0) =  0.000  0.000  0.000  0.000  0.000  0.000
             AB =  0.000  0.000  0.000  0.000  0.000  0.000  0.000  0.000  0.000
             BB =  0.000  0.000  0.000  0.000  0.000  0.000
 d2( 5, 3| 0) =  0.000  0.000  0.000 -0.082  0.000  0.000
             AB =  0.000  0.000  0.050  0.000  0.000  0.000  0.209  0.000  0.000
             BB =  0.000  0.000  0.000 -0.082  0.000  0.000
 d2( 5, 4| 0) =  0.000  0.000  0.000  0.000 -0.082  0.000
             AB =  0.000  0.000  0.000  0.000  0.000  0.050  0.000  0.209  0.000
             BB =  0.000  0.000  0.000  0.000 -0.082  0.000
 d2( 5, 5| 0) = -0.082  0.000 -0.082  0.000  0.000 -0.246
             AB =  0.050  0.000  0.000  0.000  0.050  0.000  0.000  0.000  0.310
             BB = -0.082  0.000 -0.082  0.000  0.000 -0.246
 Angular Momentum Matrix (X-component)
           1         2         3         4         5
    1   0.00000   0.00000   0.00000   0.00000   0.00000
    2   0.00000   0.00000   0.00000   0.00000   0.00000
    3   0.00000   0.00000   0.00000   0.00000   0.00000
    4   0.00000   0.00000   0.00000   0.00000   1.00000
    5   0.00000   0.00000   0.00000   1.00000   0.00000
 Angular Momentum Matrix (Y-component)
           1         2         3         4         5
    1   0.00000   0.00000   0.00000   0.00000   0.00000
    2   0.00000   0.00000   0.00000   0.00000   0.00000
    3   0.00000   0.00000   0.00000   0.00000  -1.00000
    4   0.00000   0.00000   0.00000   0.00000   0.00000
    5   0.00000   0.00000  -1.00000   0.00000   0.00000
 Angular Momentum Matrix (Z-component)
           1         2         3         4         5
    1   0.00000   0.00000   0.00000   0.00000   0.00000
    2   0.00000   0.00000   0.00000   0.00000   0.00000
    3   0.00000   0.00000   0.00000   1.00000   0.00000
    4   0.00000   0.00000   1.00000   0.00000   0.00000
    5   0.00000   0.00000   0.00000   0.00000   0.00000
 Spin-Orbit Interaction Matrix (X-component)
           1         2         3         4         5
    1   0.00000   0.00000   0.00000   0.00000   0.00000
    2   0.00000   0.00000   0.00000   0.00000   0.00000
    3   0.00000   0.00000   0.00000   0.00000   0.00000
    4   0.00000   0.00000   0.00000   0.00000  -0.47712
    5   0.00000   0.00000   0.00000  -0.47712   0.00000
 Spin-Orbit Interaction Matrix (Y-component)
           1         2         3         4         5
    1   0.00000   0.00000   0.00000   0.00000   0.00000
    2   0.00000   0.00000   0.00000   0.00000   0.00000
    3   0.00000   0.00000   0.00000   0.00000   0.47712
    4   0.00000   0.00000   0.00000   0.00000   0.00000
    5   0.00000   0.00000   0.47712   0.00000   0.00000
 Spin-Orbit Interaction Matrix (Z-component)
           1         2         3         4         5
    1   0.00000   0.00000   0.00000   0.00000   0.00000
    2   0.00000   0.00000   0.00000   0.00000   0.00000
    3   0.00000   0.00000   0.00000  -0.47712   0.00000
    4   0.00000   0.00000  -0.47712   0.00000   0.00000
    5   0.00000   0.00000   0.00000   0.00000   0.00000
 Final Beta MO Eigenvalues
            1           2           3           4           5
    1  -2.3378581   0.1022527   0.1909163   0.1909163   0.1909163
 Final Beta MO Coefficients
            1           2           3           4           5
    1   0.9912176  -0.2814682   0.0000000   0.0000000   0.0000000
    2   0.0341435   1.0298402   0.0000000   0.0000000   0.0000000
    3   0.0000000   0.0000000   0.0000000   1.0000000   0.0000000
    4   0.0000000   0.0000000   1.0000000   0.0000000   0.0000000
    5   0.0000000   0.0000000   0.0000000   0.0000000   1.0000000
 Final Beta density matrix.
            1           2           3           4           5
    1   0.9825123   0.0338437   0.0000000   0.0000000   0.0000000
    2   0.0338437   0.0011658   0.0000000   0.0000000   0.0000000
    3   0.0000000   0.0000000   0.0000000   0.0000000   0.0000000
    4   0.0000000   0.0000000   0.0000000   0.0000000   0.0000000
    5   0.0000000   0.0000000   0.0000000   0.0000000   0.0000000
 Final Beta Fock Matrix
               1               2               3               4
    1   -2.3351788966   -0.6415237121    0.0000000000    0.0000000000
    2   -0.6415237121   -0.0798228323    0.0000000000    0.0000000000
    3    0.0000000000    0.0000000000    0.1909163021    0.0000000000
    4    0.0000000000    0.0000000000    0.0000000000    0.1909163016
    5    0.0000000000    0.0000000000    0.0000000000    0.0000000000
               5
    1    0.0000000000
    2    0.0000000000
    3    0.0000000000
    4    0.0000000000
    5    0.1909163039
 SCF   energy in the final basis set = -7.3155259813
 Total energy in the final basis set = -7.3155259813
 Analysis of SCF Wavefunction
 
 --------------------------------------------------------------
 
                    Orbital Energies (a.u.)
 --------------------------------------------------------------
 
 Alpha MOs
 -- Occupied --
 -2.369  -0.180
 -- Virtual --
  0.130   0.130   0.130
 
 Beta MOs
 -- Occupied --
 -2.338
 -- Virtual --
  0.102   0.191   0.191   0.191
 --------------------------------------------------------------
 
          Ground-State Mulliken Net Atomic Charges

     Atom                 Charge (a.u.)    Spin (a.u.)
  --------------------------------------------------------
      1 Li                    0.000000       1.000000
  --------------------------------------------------------
  Sum of atomic charges =     0.000000
  Sum of spin   charges =     1.000000

Compute ChElPG charges using a head room of 2.80 A and a grid spacing of 0.300 A
Total Grid Volume 5289.1923915167 A^3
ChElPG fitting will utilize 42729 grid points
CHELPG time 0.10 (cpu) 0.10 (wall) 
         Ground-State ChElPG Net Atomic Charges

     Atom                 Charge (a.u.)
  ----------------------------------------
      1 Li                    0.000000
  ----------------------------------------
  Sum of atomic charges =     0.000000

 -----------------------------------------------------------------
                    Cartesian Multipole Moments
 -----------------------------------------------------------------
    Charge (ESU x 10^10)
                 0.0000
    Dipole Moment (Debye)
         X       0.0000      Y       0.0000      Z       0.0000
       Tot       0.0000
    Quadrupole Moments (Debye-Ang)
        XX      -5.8713     XY       0.0000     YY      -5.8713
        XZ       0.0000     YZ       0.0000     ZZ      -5.8713
    Octopole Moments (Debye-Ang^2)
       XXX       0.0000    XXY       0.0000    XYY       0.0000
       YYY       0.0000    XXZ       0.0000    XYZ       0.0000
       YYZ       0.0000    XZZ       0.0000    YZZ       0.0000
       ZZZ       0.0000
    Hexadecapole Moments (Debye-Ang^3)
      XXXX     -19.9270   XXXY       0.0000   XXYY      -6.6423
      XYYY       0.0000   YYYY     -19.9270   XXXZ       0.0000
      XXYZ       0.0000   XYYZ       0.0000   YYYZ       0.0000
      XXZZ      -6.6423   XYZZ       0.0000   YYZZ      -6.6423
      XZZZ       0.0000   YZZZ       0.0000   ZZZZ     -19.9270
 -----------------------------------------------------------------

 STANDARD THERMODYNAMIC QUANTITIES AT   298.15 K  AND     1.00 ATM

   Translational Enthalpy:        0.889 kcal/mol
   Rotational Enthalpy:           0.000 kcal/mol
   Vibrational Enthalpy:          0.000 kcal/mol
   gas constant (RT):             0.592 kcal/mol
   Translational Entropy:        31.798  cal/mol.K
   Rotational Entropy:            0.000  cal/mol.K
   Vibrational Entropy:           0.000  cal/mol.K

   Total Enthalpy:                1.481 kcal/mol
   Total Entropy:                31.798  cal/mol.K

 -----------------------------------------------------------------

Archival summary:
1\1\copper\SP\HF\STO-3G\i1(2)\eric\MonMay1112:05:132015MonMay1112:05:132015\0\\#,HF,STO-3G,\\0,2\Li\\HF=-7.31552598\\@

 Total job time:  0.38s(wall), 0.35s(cpu) 
 Mon May 11 12:05:13 2015

======= MOLDEN-FORMATTED INPUT FILE FOLLOWS =======
[Molden Format]
[Atoms] (Angs)
 Li      1    3      0.00000000      0.00000000      0.00000000

======= END OF MOLDEN-FORMATTED INPUT FILE =======


        *************************************************************
        *                                                           *
        *  Thank you very much for using Q-Chem.  Have a nice day.  *
        *                                                           *
        *************************************************************


