                  Welcome to Q-Chem
     A Quantum Leap Into The Future Of Chemistry


 Q-Chem 4.3, Q-Chem, Inc., Pleasanton, CA (2015)

 Y. Shao,  Z. Gan,  E. Epifanovsky,  A. T. B. Gilbert,  M. Wormit,  
 J. Kussmann,  A. W. Lange,  A. Behn,  J. Deng,  X. Feng,  D. Ghosh,  
 M. Goldey,  P. R. Horn,  L. D. Jacobson,  I. Kaliman,  R. Z. Khaliullin,  
 T. Kus,  A. Landau,  J. Liu,  E. I. Proynov,  Y. M. Rhee,  R. M. Richard,  
 M. A. Rohrdanz,  R. P. Steele,  E. J. Sundstrom,  H. L. Woodcock III,  
 P. M. Zimmerman,  D. Zuev,  B. Albrecht,  E. Alguire,  B. Austin,  
 S. A. Baeppler,  G. J. O. Beran,  Y. A. Bernard,  E. Berquist,  
 K. Brandhorst,  K. B. Bravaya,  S. T. Brown,  D. Casanova,  C.-M. Chang,  
 Y. Chen,  S. H. Chien,  K. D. Closser,  D. L. Crittenden,  M. Diedenhofen,  
 R. A. DiStasio Jr.,  H. Do,  A. D. Dutoi,  R. G. Edgar,  P.-T. Fang,  
 S. Fatehi,  Q. Feng,  L. Fusti-Molnar,  A. Ghysels,  
 A. Golubeva-Zadorozhnaya,  J. Gomes,  A. Gunina,  M. W. D. Hanson-Heine,  
 P. H. P. Harbach,  A. W. Hauser,  E. G. Hohenstein,  Z. C. Holden,  K. Hui,  
 T.-C. Jagau,  H. Ji,  B. Kaduk,  K. Khistyaev,  Jaehoon Kim,  Jihan Kim,  
 R. A. King,  P. Klunzinger,  D. Kosenkov,  T. Kowalczyk,  C. M. Krauter,  
 K. U. Lao,  A. Laurent,  K. V. Lawler,  S. Lehtola,  S. V. Levchenko,  
 C. Y. Lin,  Y.-S. Lin,  F. Liu,  E. Livshits,  R. C. Lochan,  A. Luenser,  
 P. Manohar,  S. F. Manzer,  S.-P. Mao,  N. Mardirossian,  A. V. Marenich,  
 L. A. Martinez-Martinez,  S. A. Maurer,  N. J. Mayhall,  K. Nanda,  
 C. M. Oana,  R. Olivares-Amaya,  D. P. O'Neill,  J. A. Parkhill,  
 T. M. Perrine,  R. Peverati,  P. A. Pieniazek,  F. Plasser,  A. Prociuk,  
 D. R. Rehn,  E. Rosta,  N. J. Russ,  N. Sergueev,  S. M. Sharada,  
 S. Sharma,  D. W. Small,  A. Sodt,  T. Stauch,  T. Stein,  D. Stuck,  
 Y.-C. Su,  A. J. W. Thom,  T. Tsuchimochi,  L. Vogt,  O. Vydrov,  T. Wang,  
 M. A. Watson,  J. Wenzel,  A. White,  C. F. Williams,  V. Vanovschi,  
 S. Yeganeh,  S. R. Yost,  Z.-Q. You,  I. Y. Zhang,  X. Zhang,  Y. Zhao,  
 B. R. Brooks,  G. K. L. Chan,  D. M. Chipman,  C. J. Cramer,  
 W. A. Goddard III,  M. S. Gordon,  W. J. Hehre,  A. Klamt,  
 H. F. Schaefer III,  M. W. Schmidt,  C. D. Sherrill,  D. G. Truhlar,  
 A. Warshel,  X. Xu,  A. Aspuru-Guzik,  R. Baer,  A. T. Bell,  N. A. Besley,  
 J.-D. Chai,  A. Dreuw,  B. D. Dunietz,  T. R. Furlani,  S. R. Gwaltney,  
 C.-P. Hsu,  Y. Jung,  J. Kong,  D. S. Lambrecht,  W. Liang,  C. Ochsenfeld,  
 V. A. Rassolov,  L. V. Slipchenko,  J. E. Subotnik,  T. Van Voorhis,  
 J. M. Herbert,  A. I. Krylov,  P. M. W. Gill,  M. Head-Gordon

 Contributors to earlier versions of Q-Chem not listed above: 
 R. D. Adamson,  J. Baker,  E. F. C. Byrd,  A. K. Chakraborty,  C.-L. Cheng,  
 H. Dachsel,  R. J. Doerksen,  G. Hawkins,  A. Heyden,  S. Hirata,  
 G. Kedziora,  F. J. Keil,  C. Kelley,  P. P. Korambath,  W. Kurlancheek,  
 A. M. Lee,  M. S. Lee,  D. Liotard,  I. Lotan,  P. E. Maslen,  N. Nair,  
 D. Neuhauser,  R. Olson,  B. Peters,  J. Ritchie,  N. E. Schultz,  
 N. Shenvi,  A. C. Simmonett,  K. S. Thanthiriwatte,  Q. Wu,  W. Zhang

 Please cite Q-Chem as follows:
 Y. Shao et al., Mol. Phys. 113, 184-215 (2014)
 DOI: 10.1080/00268976.2014.952696

 Q-Chem 4.3.0 for Intel X86 EM64T Linux

 Parts of Q-Chem use Armadillo 4.550.3 (Singapore Sling Deluxe).
 http://arma.sourceforge.net/

 Q-Chem begins on Fri May  8 13:40:30 2015  

Host: copper
0

     Scratch files written to /home/eric/scratch/qchem/LiH_STO-3G_qchem//
 Apr3015 |home|eric|opt|apps|qchem|trunk_RNUM -1

Checking the input file for inconsistencies...	...done.

--------------------------------------------------------------
User input:
--------------------------------------------------------------
$rem
 method = hf
 basis = sto-3g
 scf_convergence = 10
 thresh = 14
 scf_final_print = 3
 print_general_basis = true
 iprint = 1000
 symmetry = false
 sym_ignore = true
 ! save_ao_integrals = 1
 aoints_debug_print = 4
$end

$molecule
0 1
Li 0.0000 0.0000 0.0000
H  0.0000 0.0000 1.5949
$end
--------------------------------------------------------------
 ----------------------------------------------------------------
             Standard Nuclear Orientation (Angstroms)
    I     Atom           X                Y                Z
 ----------------------------------------------------------------
    1      Li      0.0000000000     0.0000000000     0.0000000000
    2      H       0.0000000000     0.0000000000     1.5949000000
 ----------------------------------------------------------------
 Nuclear Repulsion Energy =     0.9953800441 hartrees
 There are        2 alpha and        2 beta electrons
 Requested basis set is STO-3G
Basis set in general basis input format:
-----------------------------------------------------------------------
$basis
Li   0
S    3    1.000000
   1.61195750E+01    1.54328970E-01 
   2.93620070E+00    5.35328140E-01 
   7.94650500E-01    4.44634540E-01 
SP   3    1.000000
   6.36289700E-01   -9.99672300E-02   1.55916270E-01 
   1.47860100E-01    3.99512830E-01   6.07683720E-01 
   4.80887000E-02    7.00115470E-01   3.91957390E-01 
****
H    0
S    3    1.000000
   3.42525091E+00    1.54328970E-01 
   6.23913730E-01    5.35328140E-01 
   1.68855400E-01    4.44634540E-01 
****
$end
-----------------------------------------------------------------------
 There are 3 shells and 6 basis functions

Total QAlloc Memory Limit   2000 MB
Mega-Array Size        61 MB
MEM_STATIC part        62 MB

                       Distance Matrix (Angstroms)
             Li(  1)
   H (  2)  1.594900
 

 Q-Chem warning in module 0, line   71:

 AOINTS_DEBUG_PRINT=4

  *** Integrals not dumped for new Path2.  For full
  *** integral dump, compile with -DNO_NEW_PATH2 
 
 AOInts used (LenV =  7649892) to compute I* values
 ( 1, 1| 1, 1) =    6.7215806781
 ( 6, 1| 6, 1) =    0.0040578347
 ( 6, 6| 6, 6) =    3.0984237757
 ( 2, 1| 2, 1) =    0.0499414572
 ( 2, 1| 3, 1) =    0.0000000000
 ( 2, 1| 4, 1) =    0.0000000000
 ( 2, 1| 5, 1) =    0.0000000000
 ( 3, 1| 2, 1) =    0.0000000000
 ( 3, 1| 3, 1) =    0.0089813193
 ( 3, 1| 4, 1) =    0.0000000000
 ( 3, 1| 5, 1) =    0.0000000000
 ( 4, 1| 2, 1) =    0.0000000000
 ( 4, 1| 3, 1) =    0.0000000000
 ( 4, 1| 4, 1) =    0.0089813193
 ( 4, 1| 5, 1) =    0.0000000000
 ( 5, 1| 2, 1) =    0.0000000000
 ( 5, 1| 3, 1) =    0.0000000000
 ( 5, 1| 4, 1) =    0.0000000000
 ( 5, 1| 5, 1) =    0.0089813193
 ( 2, 6| 2, 6) =    0.0743046791
 ( 2, 6| 3, 6) =    0.0000000000
 ( 2, 6| 4, 6) =    0.0000000000
 ( 2, 6| 5, 6) =    0.1035610849
 ( 3, 6| 2, 6) =    0.0000000000
 ( 3, 6| 3, 6) =    0.0056683401
 ( 3, 6| 4, 6) =    0.0000000000
 ( 3, 6| 5, 6) =    0.0000000000
 ( 4, 6| 2, 6) =    0.0000000000
 ( 4, 6| 3, 6) =    0.0000000000
 ( 4, 6| 4, 6) =    0.0056683401
 ( 4, 6| 5, 6) =    0.0000000000
 ( 5, 6| 2, 6) =    0.1035610849
 ( 5, 6| 3, 6) =    0.0000000000
 ( 5, 6| 4, 6) =    0.0000000000
 ( 5, 6| 5, 6) =    0.1467486644
 ( 2, 2| 2, 2) =    1.1622491800
 ( 2, 2| 2, 3) =    0.0000000000
 ( 2, 2| 2, 4) =    0.0000000000
 ( 2, 2| 2, 5) =    0.0000000000
 ( 2, 2| 3, 2) =    0.0000000000
 ( 2, 2| 3, 3) =    1.1619879024
 ( 2, 2| 3, 4) =    0.0000000000
 ( 2, 2| 3, 5) =    0.0000000000
 ( 2, 2| 4, 2) =    0.0000000000
 ( 2, 2| 4, 3) =    0.0000000000
 ( 2, 2| 4, 4) =    1.1619879024
 ( 2, 2| 4, 5) =    0.0000000000
 ( 2, 2| 5, 2) =    0.0000000000
 ( 2, 2| 5, 3) =    0.0000000000
 ( 2, 2| 5, 4) =    0.0000000000
 ( 2, 2| 5, 5) =    1.1619879024
 ( 2, 3| 2, 2) =    0.0000000000
 ( 2, 3| 2, 3) =    0.2567373143
 ( 2, 3| 2, 4) =    0.0000000000
 ( 2, 3| 2, 5) =    0.0000000000
 ( 2, 3| 3, 2) =    0.2567373143
 ( 2, 3| 3, 3) =    0.0000000000
 ( 2, 3| 3, 4) =    0.0000000000
 ( 2, 3| 3, 5) =    0.0000000000
 ( 2, 3| 4, 2) =    0.0000000000
 ( 2, 3| 4, 3) =    0.0000000000
 ( 2, 3| 4, 4) =    0.0000000000
 ( 2, 3| 4, 5) =    0.0000000000
 ( 2, 3| 5, 2) =    0.0000000000
 ( 2, 3| 5, 3) =    0.0000000000
 ( 2, 3| 5, 4) =    0.0000000000
 ( 2, 3| 5, 5) =    0.0000000000
 ( 2, 4| 2, 2) =    0.0000000000
 ( 2, 4| 2, 3) =    0.0000000000
 ( 2, 4| 2, 4) =    0.2567373143
 ( 2, 4| 2, 5) =    0.0000000000
 ( 2, 4| 3, 2) =    0.0000000000
 ( 2, 4| 3, 3) =    0.0000000000
 ( 2, 4| 3, 4) =    0.0000000000
 ( 2, 4| 3, 5) =    0.0000000000
 ( 2, 4| 4, 2) =    0.2567373143
 ( 2, 4| 4, 3) =    0.0000000000
 ( 2, 4| 4, 4) =    0.0000000000
 ( 2, 4| 4, 5) =    0.0000000000
 ( 2, 4| 5, 2) =    0.0000000000
 ( 2, 4| 5, 3) =    0.0000000000
 ( 2, 4| 5, 4) =    0.0000000000
 ( 2, 4| 5, 5) =    0.0000000000
 ( 2, 5| 2, 2) =    0.0000000000
 ( 2, 5| 2, 3) =    0.0000000000
 ( 2, 5| 2, 4) =    0.0000000000
 ( 2, 5| 2, 5) =    0.2567373143
 ( 2, 5| 3, 2) =    0.0000000000
 ( 2, 5| 3, 3) =    0.0000000000
 ( 2, 5| 3, 4) =    0.0000000000
 ( 2, 5| 3, 5) =    0.0000000000
 ( 2, 5| 4, 2) =    0.0000000000
 ( 2, 5| 4, 3) =    0.0000000000
 ( 2, 5| 4, 4) =    0.0000000000
 ( 2, 5| 4, 5) =    0.0000000000
 ( 2, 5| 5, 2) =    0.2567373143
 ( 2, 5| 5, 3) =    0.0000000000
 ( 2, 5| 5, 4) =    0.0000000000
 ( 2, 5| 5, 5) =    0.0000000000
 ( 3, 2| 2, 2) =    0.0000000000
 ( 3, 2| 2, 3) =    0.2567373143
 ( 3, 2| 2, 4) =    0.0000000000
 ( 3, 2| 2, 5) =    0.0000000000
 ( 3, 2| 3, 2) =    0.2567373143
 ( 3, 2| 3, 3) =    0.0000000000
 ( 3, 2| 3, 4) =    0.0000000000
 ( 3, 2| 3, 5) =    0.0000000000
 ( 3, 2| 4, 2) =    0.0000000000
 ( 3, 2| 4, 3) =    0.0000000000
 ( 3, 2| 4, 4) =    0.0000000000
 ( 3, 2| 4, 5) =    0.0000000000
 ( 3, 2| 5, 2) =    0.0000000000
 ( 3, 2| 5, 3) =    0.0000000000
 ( 3, 2| 5, 4) =    0.0000000000
 ( 3, 2| 5, 5) =    0.0000000000
 ( 3, 3| 2, 2) =    1.1619879024
 ( 3, 3| 2, 3) =    0.0000000000
 ( 3, 3| 2, 4) =    0.0000000000
 ( 3, 3| 2, 5) =    0.0000000000
 ( 3, 3| 3, 2) =    0.0000000000
 ( 3, 3| 3, 3) =    1.2517820446
 ( 3, 3| 3, 4) =    0.0000000000
 ( 3, 3| 3, 5) =    0.0000000000
 ( 3, 3| 4, 2) =    0.0000000000
 ( 3, 3| 4, 3) =    0.0000000000
 ( 3, 3| 4, 4) =    1.1168289285
 ( 3, 3| 4, 5) =    0.0000000000
 ( 3, 3| 5, 2) =    0.0000000000
 ( 3, 3| 5, 3) =    0.0000000000
 ( 3, 3| 5, 4) =    0.0000000000
 ( 3, 3| 5, 5) =    1.1168289285
 ( 3, 4| 2, 2) =    0.0000000000
 ( 3, 4| 2, 3) =    0.0000000000
 ( 3, 4| 2, 4) =    0.0000000000
 ( 3, 4| 2, 5) =    0.0000000000
 ( 3, 4| 3, 2) =    0.0000000000
 ( 3, 4| 3, 3) =    0.0000000000
 ( 3, 4| 3, 4) =    0.0674765581
 ( 3, 4| 3, 5) =    0.0000000000
 ( 3, 4| 4, 2) =    0.0000000000
 ( 3, 4| 4, 3) =    0.0674765581
 ( 3, 4| 4, 4) =    0.0000000000
 ( 3, 4| 4, 5) =    0.0000000000
 ( 3, 4| 5, 2) =    0.0000000000
 ( 3, 4| 5, 3) =    0.0000000000
 ( 3, 4| 5, 4) =    0.0000000000
 ( 3, 4| 5, 5) =    0.0000000000
 ( 3, 5| 2, 2) =    0.0000000000
 ( 3, 5| 2, 3) =    0.0000000000
 ( 3, 5| 2, 4) =    0.0000000000
 ( 3, 5| 2, 5) =    0.0000000000
 ( 3, 5| 3, 2) =    0.0000000000
 ( 3, 5| 3, 3) =    0.0000000000
 ( 3, 5| 3, 4) =    0.0000000000
 ( 3, 5| 3, 5) =    0.0674765581
 ( 3, 5| 4, 2) =    0.0000000000
 ( 3, 5| 4, 3) =    0.0000000000
 ( 3, 5| 4, 4) =    0.0000000000
 ( 3, 5| 4, 5) =    0.0000000000
 ( 3, 5| 5, 2) =    0.0000000000
 ( 3, 5| 5, 3) =    0.0674765581
 ( 3, 5| 5, 4) =    0.0000000000
 ( 3, 5| 5, 5) =    0.0000000000
 ( 4, 2| 2, 2) =    0.0000000000
 ( 4, 2| 2, 3) =    0.0000000000
 ( 4, 2| 2, 4) =    0.2567373143
 ( 4, 2| 2, 5) =    0.0000000000
 ( 4, 2| 3, 2) =    0.0000000000
 ( 4, 2| 3, 3) =    0.0000000000
 ( 4, 2| 3, 4) =    0.0000000000
 ( 4, 2| 3, 5) =    0.0000000000
 ( 4, 2| 4, 2) =    0.2567373143
 ( 4, 2| 4, 3) =    0.0000000000
 ( 4, 2| 4, 4) =    0.0000000000
 ( 4, 2| 4, 5) =    0.0000000000
 ( 4, 2| 5, 2) =    0.0000000000
 ( 4, 2| 5, 3) =    0.0000000000
 ( 4, 2| 5, 4) =    0.0000000000
 ( 4, 2| 5, 5) =    0.0000000000
 ( 4, 3| 2, 2) =    0.0000000000
 ( 4, 3| 2, 3) =    0.0000000000
 ( 4, 3| 2, 4) =    0.0000000000
 ( 4, 3| 2, 5) =    0.0000000000
 ( 4, 3| 3, 2) =    0.0000000000
 ( 4, 3| 3, 3) =    0.0000000000
 ( 4, 3| 3, 4) =    0.0674765581
 ( 4, 3| 3, 5) =    0.0000000000
 ( 4, 3| 4, 2) =    0.0000000000
 ( 4, 3| 4, 3) =    0.0674765581
 ( 4, 3| 4, 4) =    0.0000000000
 ( 4, 3| 4, 5) =    0.0000000000
 ( 4, 3| 5, 2) =    0.0000000000
 ( 4, 3| 5, 3) =    0.0000000000
 ( 4, 3| 5, 4) =    0.0000000000
 ( 4, 3| 5, 5) =    0.0000000000
 ( 4, 4| 2, 2) =    1.1619879024
 ( 4, 4| 2, 3) =    0.0000000000
 ( 4, 4| 2, 4) =    0.0000000000
 ( 4, 4| 2, 5) =    0.0000000000
 ( 4, 4| 3, 2) =    0.0000000000
 ( 4, 4| 3, 3) =    1.1168289285
 ( 4, 4| 3, 4) =    0.0000000000
 ( 4, 4| 3, 5) =    0.0000000000
 ( 4, 4| 4, 2) =    0.0000000000
 ( 4, 4| 4, 3) =    0.0000000000
 ( 4, 4| 4, 4) =    1.2517820446
 ( 4, 4| 4, 5) =    0.0000000000
 ( 4, 4| 5, 2) =    0.0000000000
 ( 4, 4| 5, 3) =    0.0000000000
 ( 4, 4| 5, 4) =    0.0000000000
 ( 4, 4| 5, 5) =    1.1168289285
 ( 4, 5| 2, 2) =    0.0000000000
 ( 4, 5| 2, 3) =    0.0000000000
 ( 4, 5| 2, 4) =    0.0000000000
 ( 4, 5| 2, 5) =    0.0000000000
 ( 4, 5| 3, 2) =    0.0000000000
 ( 4, 5| 3, 3) =    0.0000000000
 ( 4, 5| 3, 4) =    0.0000000000
 ( 4, 5| 3, 5) =    0.0000000000
 ( 4, 5| 4, 2) =    0.0000000000
 ( 4, 5| 4, 3) =    0.0000000000
 ( 4, 5| 4, 4) =    0.0000000000
 ( 4, 5| 4, 5) =    0.0674765581
 ( 4, 5| 5, 2) =    0.0000000000
 ( 4, 5| 5, 3) =    0.0000000000
 ( 4, 5| 5, 4) =    0.0674765581
 ( 4, 5| 5, 5) =    0.0000000000
 ( 5, 2| 2, 2) =    0.0000000000
 ( 5, 2| 2, 3) =    0.0000000000
 ( 5, 2| 2, 4) =    0.0000000000
 ( 5, 2| 2, 5) =    0.2567373143
 ( 5, 2| 3, 2) =    0.0000000000
 ( 5, 2| 3, 3) =    0.0000000000
 ( 5, 2| 3, 4) =    0.0000000000
 ( 5, 2| 3, 5) =    0.0000000000
 ( 5, 2| 4, 2) =    0.0000000000
 ( 5, 2| 4, 3) =    0.0000000000
 ( 5, 2| 4, 4) =    0.0000000000
 ( 5, 2| 4, 5) =    0.0000000000
 ( 5, 2| 5, 2) =    0.2567373143
 ( 5, 2| 5, 3) =    0.0000000000
 ( 5, 2| 5, 4) =    0.0000000000
 ( 5, 2| 5, 5) =    0.0000000000
 ( 5, 3| 2, 2) =    0.0000000000
 ( 5, 3| 2, 3) =    0.0000000000
 ( 5, 3| 2, 4) =    0.0000000000
 ( 5, 3| 2, 5) =    0.0000000000
 ( 5, 3| 3, 2) =    0.0000000000
 ( 5, 3| 3, 3) =    0.0000000000
 ( 5, 3| 3, 4) =    0.0000000000
 ( 5, 3| 3, 5) =    0.0674765581
 ( 5, 3| 4, 2) =    0.0000000000
 ( 5, 3| 4, 3) =    0.0000000000
 ( 5, 3| 4, 4) =    0.0000000000
 ( 5, 3| 4, 5) =    0.0000000000
 ( 5, 3| 5, 2) =    0.0000000000
 ( 5, 3| 5, 3) =    0.0674765581
 ( 5, 3| 5, 4) =    0.0000000000
 ( 5, 3| 5, 5) =    0.0000000000
 ( 5, 4| 2, 2) =    0.0000000000
 ( 5, 4| 2, 3) =    0.0000000000
 ( 5, 4| 2, 4) =    0.0000000000
 ( 5, 4| 2, 5) =    0.0000000000
 ( 5, 4| 3, 2) =    0.0000000000
 ( 5, 4| 3, 3) =    0.0000000000
 ( 5, 4| 3, 4) =    0.0000000000
 ( 5, 4| 3, 5) =    0.0000000000
 ( 5, 4| 4, 2) =    0.0000000000
 ( 5, 4| 4, 3) =    0.0000000000
 ( 5, 4| 4, 4) =    0.0000000000
 ( 5, 4| 4, 5) =    0.0674765581
 ( 5, 4| 5, 2) =    0.0000000000
 ( 5, 4| 5, 3) =    0.0000000000
 ( 5, 4| 5, 4) =    0.0674765581
 ( 5, 4| 5, 5) =    0.0000000000
 ( 5, 5| 2, 2) =    1.1619879024
 ( 5, 5| 2, 3) =    0.0000000000
 ( 5, 5| 2, 4) =    0.0000000000
 ( 5, 5| 2, 5) =    0.0000000000
 ( 5, 5| 3, 2) =    0.0000000000
 ( 5, 5| 3, 3) =    1.1168289285
 ( 5, 5| 3, 4) =    0.0000000000
 ( 5, 5| 3, 5) =    0.0000000000
 ( 5, 5| 4, 2) =    0.0000000000
 ( 5, 5| 4, 3) =    0.0000000000
 ( 5, 5| 4, 4) =    1.1168289285
 ( 5, 5| 4, 5) =    0.0000000000
 ( 5, 5| 5, 2) =    0.0000000000
 ( 5, 5| 5, 3) =    0.0000000000
 ( 5, 5| 5, 4) =    0.0000000000
 ( 5, 5| 5, 5) =    1.2517820446
 A cutoff of  1.0D-14 yielded      6 shell pairs
 There are        27 function pairs
 
 -------------------------------------------------------
 OpenMP Integral Computing Module                       
 Release: version 1.0, May 2013, Q-Chem Inc. Pittsburgh 
 -------------------------------------------------------
 Integral Job Info:
 Integral job number is                      11
 Integral operator is                         1
 short-range coefficients               -999999
 long-range coefficients                -999999
 Omega coefficients                           0
 if combine SR and LR in K              -999999
 Integral screening is                        0
 Integral computing path is                   2
 max size of driver memory is            800000
 size of driver memory is                 45569
 size of scratch memory is               945100
 max col of scratch BK array                289
 max len of scratch array in speh3           22
 max len of scratch index in speh4            8
 max int batch size is                      520
 min int batch size is                       52
 fixed nKL is                                52
 max L of basis functions is                  1
 order of int derivative is                   0
 number of shells is                          3
 number of basis is                           6
 number of cartesian basis is                 6
 number of contracted shell pairs             6
 number of primitive shell pairs             54
 maxK2 (contraction) of shell pair            9
 max number of K2 of shell pair               1
 max number of CS2 of shell pair              3
 max number of PS2 of shell pair             27
 mem total for path MDJ                    6006
 -------------------------------------------------------
 Smallest overlap matrix eigenvalue = 3.45E-01

  Scale SEOQF with 1.000000e+00/1.000000e+00/1.000000e+00

 Standard Electronic Orientation quadrupole field applied
 Nucleus-field energy     =    -0.0000000027 hartrees
 Guess from superposition of atomic densities
 Warning:  Energy on first SCF cycle will be non-variational
 A restricted Hartree-Fock SCF calculation will be
 performed using Pulay DIIS extrapolation
 SCF converges when DIIS error is below 1.0E-10

 Q-Chem warning in module 0, line   71:

 AOINTS_DEBUG_PRINT=4

  *** Integrals not dumped for new Path2.  For full
  *** integral dump, compile with -DNO_NEW_PATH2 
 
 AOInts used (LenV =  7749998) to compute the J vector and K matrices
 ( 1, 1| 1, 1) =    1.6803951695
 ( 6, 6| 1, 1) =    0.3305221950
 ( 6, 6| 6, 6) =    0.7746059439
 ( 6, 1| 1, 1) =    0.0720176337
 ( 6, 1| 6, 6) =    0.0270653194
 ( 6, 1| 6, 1) =    0.0040578347
 ( 1, 1| 2, 6) =    0.1514470285
 ( 1, 1| 2, 1) =    0.2654203646
 ( 1, 1| 3, 6) =    0.0000000000
 ( 1, 1| 3, 1) =    0.0000000000
 ( 1, 1| 4, 6) =    0.0000000000
 ( 1, 1| 4, 1) =    0.0000000000
 ( 1, 1| 5, 6) =    0.1825672866
 ( 1, 1| 5, 1) =    0.0000000000
 ( 6, 6| 2, 6) =    0.2228469301
 ( 6, 6| 2, 1) =    0.0793312296
 ( 6, 6| 3, 6) =    0.0000000000
 ( 6, 6| 3, 1) =    0.0000000000
 ( 6, 6| 4, 6) =    0.0000000000
 ( 6, 6| 4, 1) =    0.0000000000
 ( 6, 6| 5, 6) =    0.3233166098
 ( 6, 6| 5, 1) =    0.0153190953
 ( 6, 1| 2, 6) =    0.0115913569
 ( 6, 1| 2, 1) =    0.0136168437
 ( 6, 1| 3, 6) =    0.0000000000
 ( 6, 1| 3, 1) =    0.0000000000
 ( 6, 1| 4, 6) =    0.0000000000
 ( 6, 1| 4, 1) =    0.0000000000
 ( 6, 1| 5, 6) =    0.0147694282
 ( 6, 1| 5, 1) =    0.0016083316
 ( 1, 1| 2, 2) =    0.3977268611
 ( 1, 1| 2, 3) =    0.0000000000
 ( 1, 1| 2, 4) =    0.0000000000
 ( 1, 1| 2, 5) =    0.0000000000
 ( 1, 1| 3, 2) =    0.0000000000
 ( 1, 1| 3, 3) =    0.3966396423
 ( 1, 1| 3, 4) =    0.0000000000
 ( 1, 1| 3, 5) =    0.0000000000
 ( 1, 1| 4, 2) =    0.0000000000
 ( 1, 1| 4, 3) =    0.0000000000
 ( 1, 1| 4, 4) =    0.3966396423
 ( 1, 1| 4, 5) =    0.0000000000
 ( 1, 1| 5, 2) =    0.0000000000
 ( 1, 1| 5, 3) =    0.0000000000
 ( 1, 1| 5, 4) =    0.0000000000
 ( 1, 1| 5, 5) =    0.3966396423
 ( 6, 6| 2, 2) =    0.2814530730
 ( 6, 6| 2, 3) =    0.0000000000
 ( 6, 6| 2, 4) =    0.0000000000
 ( 6, 6| 2, 5) =    0.1058735809
 ( 6, 6| 3, 2) =    0.0000000000
 ( 6, 6| 3, 3) =    0.2570646344
 ( 6, 6| 3, 4) =    0.0000000000
 ( 6, 6| 3, 5) =    0.0000000000
 ( 6, 6| 4, 2) =    0.0000000000
 ( 6, 6| 4, 3) =    0.0000000000
 ( 6, 6| 4, 4) =    0.2570646344
 ( 6, 6| 4, 5) =    0.0000000000
 ( 6, 6| 5, 2) =    0.1058735809
 ( 6, 6| 5, 3) =    0.0000000000
 ( 6, 6| 5, 4) =    0.0000000000
 ( 6, 6| 5, 5) =    0.3298285907
 ( 6, 1| 2, 2) =    0.0257520042
 ( 6, 1| 2, 3) =    0.0000000000
 ( 6, 1| 2, 4) =    0.0000000000
 ( 6, 1| 2, 5) =    0.0031074559
 ( 6, 1| 3, 2) =    0.0000000000
 ( 6, 1| 3, 3) =    0.0254488194
 ( 6, 1| 3, 4) =    0.0000000000
 ( 6, 1| 3, 5) =    0.0000000000
 ( 6, 1| 4, 2) =    0.0000000000
 ( 6, 1| 4, 3) =    0.0000000000
 ( 6, 1| 4, 4) =    0.0254488194
 ( 6, 1| 4, 5) =    0.0000000000
 ( 6, 1| 5, 2) =    0.0031074559
 ( 6, 1| 5, 3) =    0.0000000000
 ( 6, 1| 5, 4) =    0.0000000000
 ( 6, 1| 5, 5) =    0.0263703332
 ( 2, 6| 2, 6) =    0.0743046791
 ( 2, 6| 3, 6) =    0.0000000000
 ( 2, 6| 4, 6) =    0.0000000000
 ( 2, 6| 5, 6) =    0.1035610849
 ( 3, 6| 2, 6) =    0.0000000000
 ( 3, 6| 3, 6) =    0.0056683401
 ( 3, 6| 4, 6) =    0.0000000000
 ( 3, 6| 5, 6) =    0.0000000000
 ( 4, 6| 2, 6) =    0.0000000000
 ( 4, 6| 3, 6) =    0.0000000000
 ( 4, 6| 4, 6) =    0.0056683401
 ( 4, 6| 5, 6) =    0.0000000000
 ( 5, 6| 2, 6) =    0.1035610849
 ( 5, 6| 3, 6) =    0.0000000000
 ( 5, 6| 4, 6) =    0.0000000000
 ( 5, 6| 5, 6) =    0.1467486644
 ( 2, 1| 2, 6) =    0.0356972456
 ( 2, 1| 2, 1) =    0.0499414572
 ( 2, 1| 3, 6) =    0.0000000000
 ( 2, 1| 3, 1) =    0.0000000000
 ( 2, 1| 4, 6) =    0.0000000000
 ( 2, 1| 4, 1) =    0.0000000000
 ( 2, 1| 5, 6) =    0.0435263966
 ( 2, 1| 5, 1) =    0.0000000000
 ( 3, 1| 2, 6) =    0.0000000000
 ( 3, 1| 2, 1) =    0.0000000000
 ( 3, 1| 3, 6) =    0.0030366495
 ( 3, 1| 3, 1) =    0.0089813193
 ( 3, 1| 4, 6) =    0.0000000000
 ( 3, 1| 4, 1) =    0.0000000000
 ( 3, 1| 5, 6) =    0.0000000000
 ( 3, 1| 5, 1) =    0.0000000000
 ( 4, 1| 2, 6) =    0.0000000000
 ( 4, 1| 2, 1) =    0.0000000000
 ( 4, 1| 3, 6) =    0.0000000000
 ( 4, 1| 3, 1) =    0.0000000000
 ( 4, 1| 4, 6) =    0.0030366495
 ( 4, 1| 4, 1) =    0.0089813193
 ( 4, 1| 5, 6) =    0.0000000000
 ( 4, 1| 5, 1) =    0.0000000000
 ( 5, 1| 2, 6) =    0.0058278744
 ( 5, 1| 2, 1) =    0.0000000000
 ( 5, 1| 3, 6) =    0.0000000000
 ( 5, 1| 3, 1) =    0.0000000000
 ( 5, 1| 4, 6) =    0.0000000000
 ( 5, 1| 4, 1) =    0.0000000000
 ( 5, 1| 5, 6) =    0.0090724452
 ( 5, 1| 5, 1) =    0.0089813193
 ( 2, 6| 2, 2) =    0.1159993520
 ( 2, 6| 2, 3) =    0.0000000000
 ( 2, 6| 2, 4) =    0.0000000000
 ( 2, 6| 2, 5) =    0.0337640065
 ( 2, 6| 3, 2) =    0.0000000000
 ( 2, 6| 3, 3) =    0.1102618030
 ( 2, 6| 3, 4) =    0.0000000000
 ( 2, 6| 3, 5) =    0.0000000000
 ( 2, 6| 4, 2) =    0.0000000000
 ( 2, 6| 4, 3) =    0.0000000000
 ( 2, 6| 4, 4) =    0.1102618030
 ( 2, 6| 4, 5) =    0.0000000000
 ( 2, 6| 5, 2) =    0.0337640065
 ( 2, 6| 5, 3) =    0.0000000000
 ( 2, 6| 5, 4) =    0.0000000000
 ( 2, 6| 5, 5) =    0.1273520869
 ( 3, 6| 2, 2) =    0.0000000000
 ( 3, 6| 2, 3) =    0.0136575064
 ( 3, 6| 2, 4) =    0.0000000000
 ( 3, 6| 2, 5) =    0.0000000000
 ( 3, 6| 3, 2) =    0.0136575064
 ( 3, 6| 3, 3) =    0.0000000000
 ( 3, 6| 3, 4) =    0.0000000000
 ( 3, 6| 3, 5) =    0.0053549540
 ( 3, 6| 4, 2) =    0.0000000000
 ( 3, 6| 4, 3) =    0.0000000000
 ( 3, 6| 4, 4) =    0.0000000000
 ( 3, 6| 4, 5) =    0.0000000000
 ( 3, 6| 5, 2) =    0.0000000000
 ( 3, 6| 5, 3) =    0.0053549540
 ( 3, 6| 5, 4) =    0.0000000000
 ( 3, 6| 5, 5) =    0.0000000000
 ( 4, 6| 2, 2) =    0.0000000000
 ( 4, 6| 2, 3) =    0.0000000000
 ( 4, 6| 2, 4) =    0.0136575064
 ( 4, 6| 2, 5) =    0.0000000000
 ( 4, 6| 3, 2) =    0.0000000000
 ( 4, 6| 3, 3) =    0.0000000000
 ( 4, 6| 3, 4) =    0.0000000000
 ( 4, 6| 3, 5) =    0.0000000000
 ( 4, 6| 4, 2) =    0.0136575064
 ( 4, 6| 4, 3) =    0.0000000000
 ( 4, 6| 4, 4) =    0.0000000000
 ( 4, 6| 4, 5) =    0.0053549540
 ( 4, 6| 5, 2) =    0.0000000000
 ( 4, 6| 5, 3) =    0.0000000000
 ( 4, 6| 5, 4) =    0.0053549540
 ( 4, 6| 5, 5) =    0.0000000000
 ( 5, 6| 2, 2) =    0.1469830696
 ( 5, 6| 2, 3) =    0.0000000000
 ( 5, 6| 2, 4) =    0.0000000000
 ( 5, 6| 2, 5) =    0.0516490313
 ( 5, 6| 3, 2) =    0.0000000000
 ( 5, 6| 3, 3) =    0.1371663806
 ( 5, 6| 3, 4) =    0.0000000000
 ( 5, 6| 3, 5) =    0.0000000000
 ( 5, 6| 4, 2) =    0.0000000000
 ( 5, 6| 4, 3) =    0.0000000000
 ( 5, 6| 4, 4) =    0.1371663806
 ( 5, 6| 4, 5) =    0.0000000000
 ( 5, 6| 5, 2) =    0.0516490313
 ( 5, 6| 5, 3) =    0.0000000000
 ( 5, 6| 5, 4) =    0.0000000000
 ( 5, 6| 5, 5) =    0.1664352431
 ( 2, 1| 2, 2) =    0.0928601436
 ( 2, 1| 2, 3) =    0.0000000000
 ( 2, 1| 2, 4) =    0.0000000000
 ( 2, 1| 2, 5) =    0.0000000000
 ( 2, 1| 3, 2) =    0.0000000000
 ( 2, 1| 3, 3) =    0.0928803968
 ( 2, 1| 3, 4) =    0.0000000000
 ( 2, 1| 3, 5) =    0.0000000000
 ( 2, 1| 4, 2) =    0.0000000000
 ( 2, 1| 4, 3) =    0.0000000000
 ( 2, 1| 4, 4) =    0.0928803968
 ( 2, 1| 4, 5) =    0.0000000000
 ( 2, 1| 5, 2) =    0.0000000000
 ( 2, 1| 5, 3) =    0.0000000000
 ( 2, 1| 5, 4) =    0.0000000000
 ( 2, 1| 5, 5) =    0.0928803968
 ( 3, 1| 2, 2) =    0.0000000000
 ( 3, 1| 2, 3) =    0.0137882689
 ( 3, 1| 2, 4) =    0.0000000000
 ( 3, 1| 2, 5) =    0.0000000000
 ( 3, 1| 3, 2) =    0.0137882689
 ( 3, 1| 3, 3) =    0.0000000000
 ( 3, 1| 3, 4) =    0.0000000000
 ( 3, 1| 3, 5) =    0.0000000000
 ( 3, 1| 4, 2) =    0.0000000000
 ( 3, 1| 4, 3) =    0.0000000000
 ( 3, 1| 4, 4) =    0.0000000000
 ( 3, 1| 4, 5) =    0.0000000000
 ( 3, 1| 5, 2) =    0.0000000000
 ( 3, 1| 5, 3) =    0.0000000000
 ( 3, 1| 5, 4) =    0.0000000000
 ( 3, 1| 5, 5) =    0.0000000000
 ( 4, 1| 2, 2) =    0.0000000000
 ( 4, 1| 2, 3) =    0.0000000000
 ( 4, 1| 2, 4) =    0.0137882689
 ( 4, 1| 2, 5) =    0.0000000000
 ( 4, 1| 3, 2) =    0.0000000000
 ( 4, 1| 3, 3) =    0.0000000000
 ( 4, 1| 3, 4) =    0.0000000000
 ( 4, 1| 3, 5) =    0.0000000000
 ( 4, 1| 4, 2) =    0.0137882689
 ( 4, 1| 4, 3) =    0.0000000000
 ( 4, 1| 4, 4) =    0.0000000000
 ( 4, 1| 4, 5) =    0.0000000000
 ( 4, 1| 5, 2) =    0.0000000000
 ( 4, 1| 5, 3) =    0.0000000000
 ( 4, 1| 5, 4) =    0.0000000000
 ( 4, 1| 5, 5) =    0.0000000000
 ( 5, 1| 2, 2) =    0.0000000000
 ( 5, 1| 2, 3) =    0.0000000000
 ( 5, 1| 2, 4) =    0.0000000000
 ( 5, 1| 2, 5) =    0.0137882689
 ( 5, 1| 3, 2) =    0.0000000000
 ( 5, 1| 3, 3) =    0.0000000000
 ( 5, 1| 3, 4) =    0.0000000000
 ( 5, 1| 3, 5) =    0.0000000000
 ( 5, 1| 4, 2) =    0.0000000000
 ( 5, 1| 4, 3) =    0.0000000000
 ( 5, 1| 4, 4) =    0.0000000000
 ( 5, 1| 4, 5) =    0.0000000000
 ( 5, 1| 5, 2) =    0.0137882689
 ( 5, 1| 5, 3) =    0.0000000000
 ( 5, 1| 5, 4) =    0.0000000000
 ( 5, 1| 5, 5) =    0.0000000000
 ( 2, 2| 2, 2) =    0.2905622950
 ( 2, 2| 2, 3) =    0.0000000000
 ( 2, 2| 2, 4) =    0.0000000000
 ( 2, 2| 2, 5) =    0.0000000000
 ( 2, 2| 3, 2) =    0.0000000000
 ( 2, 2| 3, 3) =    0.2904969756
 ( 2, 2| 3, 4) =    0.0000000000
 ( 2, 2| 3, 5) =    0.0000000000
 ( 2, 2| 4, 2) =    0.0000000000
 ( 2, 2| 4, 3) =    0.0000000000
 ( 2, 2| 4, 4) =    0.2904969756
 ( 2, 2| 4, 5) =    0.0000000000
 ( 2, 2| 5, 2) =    0.0000000000
 ( 2, 2| 5, 3) =    0.0000000000
 ( 2, 2| 5, 4) =    0.0000000000
 ( 2, 2| 5, 5) =    0.2904969756
 ( 2, 3| 2, 2) =    0.0000000000
 ( 2, 3| 2, 3) =    0.0641843286
 ( 2, 3| 2, 4) =    0.0000000000
 ( 2, 3| 2, 5) =    0.0000000000
 ( 2, 3| 3, 2) =    0.0641843286
 ( 2, 3| 3, 3) =    0.0000000000
 ( 2, 3| 3, 4) =    0.0000000000
 ( 2, 3| 3, 5) =    0.0000000000
 ( 2, 3| 4, 2) =    0.0000000000
 ( 2, 3| 4, 3) =    0.0000000000
 ( 2, 3| 4, 4) =    0.0000000000
 ( 2, 3| 4, 5) =    0.0000000000
 ( 2, 3| 5, 2) =    0.0000000000
 ( 2, 3| 5, 3) =    0.0000000000
 ( 2, 3| 5, 4) =    0.0000000000
 ( 2, 3| 5, 5) =    0.0000000000
 ( 2, 4| 2, 2) =    0.0000000000
 ( 2, 4| 2, 3) =    0.0000000000
 ( 2, 4| 2, 4) =    0.0641843286
 ( 2, 4| 2, 5) =    0.0000000000
 ( 2, 4| 3, 2) =    0.0000000000
 ( 2, 4| 3, 3) =    0.0000000000
 ( 2, 4| 3, 4) =    0.0000000000
 ( 2, 4| 3, 5) =    0.0000000000
 ( 2, 4| 4, 2) =    0.0641843286
 ( 2, 4| 4, 3) =    0.0000000000
 ( 2, 4| 4, 4) =    0.0000000000
 ( 2, 4| 4, 5) =    0.0000000000
 ( 2, 4| 5, 2) =    0.0000000000
 ( 2, 4| 5, 3) =    0.0000000000
 ( 2, 4| 5, 4) =    0.0000000000
 ( 2, 4| 5, 5) =    0.0000000000
 ( 2, 5| 2, 2) =    0.0000000000
 ( 2, 5| 2, 3) =    0.0000000000
 ( 2, 5| 2, 4) =    0.0000000000
 ( 2, 5| 2, 5) =    0.0641843286
 ( 2, 5| 3, 2) =    0.0000000000
 ( 2, 5| 3, 3) =    0.0000000000
 ( 2, 5| 3, 4) =    0.0000000000
 ( 2, 5| 3, 5) =    0.0000000000
 ( 2, 5| 4, 2) =    0.0000000000
 ( 2, 5| 4, 3) =    0.0000000000
 ( 2, 5| 4, 4) =    0.0000000000
 ( 2, 5| 4, 5) =    0.0000000000
 ( 2, 5| 5, 2) =    0.0641843286
 ( 2, 5| 5, 3) =    0.0000000000
 ( 2, 5| 5, 4) =    0.0000000000
 ( 2, 5| 5, 5) =    0.0000000000
 ( 3, 2| 2, 2) =    0.0000000000
 ( 3, 2| 2, 3) =    0.0641843286
 ( 3, 2| 2, 4) =    0.0000000000
 ( 3, 2| 2, 5) =    0.0000000000
 ( 3, 2| 3, 2) =    0.0641843286
 ( 3, 2| 3, 3) =    0.0000000000
 ( 3, 2| 3, 4) =    0.0000000000
 ( 3, 2| 3, 5) =    0.0000000000
 ( 3, 2| 4, 2) =    0.0000000000
 ( 3, 2| 4, 3) =    0.0000000000
 ( 3, 2| 4, 4) =    0.0000000000
 ( 3, 2| 4, 5) =    0.0000000000
 ( 3, 2| 5, 2) =    0.0000000000
 ( 3, 2| 5, 3) =    0.0000000000
 ( 3, 2| 5, 4) =    0.0000000000
 ( 3, 2| 5, 5) =    0.0000000000
 ( 3, 3| 2, 2) =    0.2904969756
 ( 3, 3| 2, 3) =    0.0000000000
 ( 3, 3| 2, 4) =    0.0000000000
 ( 3, 3| 2, 5) =    0.0000000000
 ( 3, 3| 3, 2) =    0.0000000000
 ( 3, 3| 3, 3) =    0.3129455112
 ( 3, 3| 3, 4) =    0.0000000000
 ( 3, 3| 3, 5) =    0.0000000000
 ( 3, 3| 4, 2) =    0.0000000000
 ( 3, 3| 4, 3) =    0.0000000000
 ( 3, 3| 4, 4) =    0.2792072321
 ( 3, 3| 4, 5) =    0.0000000000
 ( 3, 3| 5, 2) =    0.0000000000
 ( 3, 3| 5, 3) =    0.0000000000
 ( 3, 3| 5, 4) =    0.0000000000
 ( 3, 3| 5, 5) =    0.2792072321
 ( 3, 4| 2, 2) =    0.0000000000
 ( 3, 4| 2, 3) =    0.0000000000
 ( 3, 4| 2, 4) =    0.0000000000
 ( 3, 4| 2, 5) =    0.0000000000
 ( 3, 4| 3, 2) =    0.0000000000
 ( 3, 4| 3, 3) =    0.0000000000
 ( 3, 4| 3, 4) =    0.0168691395
 ( 3, 4| 3, 5) =    0.0000000000
 ( 3, 4| 4, 2) =    0.0000000000
 ( 3, 4| 4, 3) =    0.0168691395
 ( 3, 4| 4, 4) =    0.0000000000
 ( 3, 4| 4, 5) =    0.0000000000
 ( 3, 4| 5, 2) =    0.0000000000
 ( 3, 4| 5, 3) =    0.0000000000
 ( 3, 4| 5, 4) =    0.0000000000
 ( 3, 4| 5, 5) =    0.0000000000
 ( 3, 5| 2, 2) =    0.0000000000
 ( 3, 5| 2, 3) =    0.0000000000
 ( 3, 5| 2, 4) =    0.0000000000
 ( 3, 5| 2, 5) =    0.0000000000
 ( 3, 5| 3, 2) =    0.0000000000
 ( 3, 5| 3, 3) =    0.0000000000
 ( 3, 5| 3, 4) =    0.0000000000
 ( 3, 5| 3, 5) =    0.0168691395
 ( 3, 5| 4, 2) =    0.0000000000
 ( 3, 5| 4, 3) =    0.0000000000
 ( 3, 5| 4, 4) =    0.0000000000
 ( 3, 5| 4, 5) =    0.0000000000
 ( 3, 5| 5, 2) =    0.0000000000
 ( 3, 5| 5, 3) =    0.0168691395
 ( 3, 5| 5, 4) =    0.0000000000
 ( 3, 5| 5, 5) =    0.0000000000
 ( 4, 2| 2, 2) =    0.0000000000
 ( 4, 2| 2, 3) =    0.0000000000
 ( 4, 2| 2, 4) =    0.0641843286
 ( 4, 2| 2, 5) =    0.0000000000
 ( 4, 2| 3, 2) =    0.0000000000
 ( 4, 2| 3, 3) =    0.0000000000
 ( 4, 2| 3, 4) =    0.0000000000
 ( 4, 2| 3, 5) =    0.0000000000
 ( 4, 2| 4, 2) =    0.0641843286
 ( 4, 2| 4, 3) =    0.0000000000
 ( 4, 2| 4, 4) =    0.0000000000
 ( 4, 2| 4, 5) =    0.0000000000
 ( 4, 2| 5, 2) =    0.0000000000
 ( 4, 2| 5, 3) =    0.0000000000
 ( 4, 2| 5, 4) =    0.0000000000
 ( 4, 2| 5, 5) =    0.0000000000
 ( 4, 3| 2, 2) =    0.0000000000
 ( 4, 3| 2, 3) =    0.0000000000
 ( 4, 3| 2, 4) =    0.0000000000
 ( 4, 3| 2, 5) =    0.0000000000
 ( 4, 3| 3, 2) =    0.0000000000
 ( 4, 3| 3, 3) =    0.0000000000
 ( 4, 3| 3, 4) =    0.0168691395
 ( 4, 3| 3, 5) =    0.0000000000
 ( 4, 3| 4, 2) =    0.0000000000
 ( 4, 3| 4, 3) =    0.0168691395
 ( 4, 3| 4, 4) =    0.0000000000
 ( 4, 3| 4, 5) =    0.0000000000
 ( 4, 3| 5, 2) =    0.0000000000
 ( 4, 3| 5, 3) =    0.0000000000
 ( 4, 3| 5, 4) =    0.0000000000
 ( 4, 3| 5, 5) =    0.0000000000
 ( 4, 4| 2, 2) =    0.2904969756
 ( 4, 4| 2, 3) =    0.0000000000
 ( 4, 4| 2, 4) =    0.0000000000
 ( 4, 4| 2, 5) =    0.0000000000
 ( 4, 4| 3, 2) =    0.0000000000
 ( 4, 4| 3, 3) =    0.2792072321
 ( 4, 4| 3, 4) =    0.0000000000
 ( 4, 4| 3, 5) =    0.0000000000
 ( 4, 4| 4, 2) =    0.0000000000
 ( 4, 4| 4, 3) =    0.0000000000
 ( 4, 4| 4, 4) =    0.3129455112
 ( 4, 4| 4, 5) =    0.0000000000
 ( 4, 4| 5, 2) =    0.0000000000
 ( 4, 4| 5, 3) =    0.0000000000
 ( 4, 4| 5, 4) =    0.0000000000
 ( 4, 4| 5, 5) =    0.2792072321
 ( 4, 5| 2, 2) =    0.0000000000
 ( 4, 5| 2, 3) =    0.0000000000
 ( 4, 5| 2, 4) =    0.0000000000
 ( 4, 5| 2, 5) =    0.0000000000
 ( 4, 5| 3, 2) =    0.0000000000
 ( 4, 5| 3, 3) =    0.0000000000
 ( 4, 5| 3, 4) =    0.0000000000
 ( 4, 5| 3, 5) =    0.0000000000
 ( 4, 5| 4, 2) =    0.0000000000
 ( 4, 5| 4, 3) =    0.0000000000
 ( 4, 5| 4, 4) =    0.0000000000
 ( 4, 5| 4, 5) =    0.0168691395
 ( 4, 5| 5, 2) =    0.0000000000
 ( 4, 5| 5, 3) =    0.0000000000
 ( 4, 5| 5, 4) =    0.0168691395
 ( 4, 5| 5, 5) =    0.0000000000
 ( 5, 2| 2, 2) =    0.0000000000
 ( 5, 2| 2, 3) =    0.0000000000
 ( 5, 2| 2, 4) =    0.0000000000
 ( 5, 2| 2, 5) =    0.0641843286
 ( 5, 2| 3, 2) =    0.0000000000
 ( 5, 2| 3, 3) =    0.0000000000
 ( 5, 2| 3, 4) =    0.0000000000
 ( 5, 2| 3, 5) =    0.0000000000
 ( 5, 2| 4, 2) =    0.0000000000
 ( 5, 2| 4, 3) =    0.0000000000
 ( 5, 2| 4, 4) =    0.0000000000
 ( 5, 2| 4, 5) =    0.0000000000
 ( 5, 2| 5, 2) =    0.0641843286
 ( 5, 2| 5, 3) =    0.0000000000
 ( 5, 2| 5, 4) =    0.0000000000
 ( 5, 2| 5, 5) =    0.0000000000
 ( 5, 3| 2, 2) =    0.0000000000
 ( 5, 3| 2, 3) =    0.0000000000
 ( 5, 3| 2, 4) =    0.0000000000
 ( 5, 3| 2, 5) =    0.0000000000
 ( 5, 3| 3, 2) =    0.0000000000
 ( 5, 3| 3, 3) =    0.0000000000
 ( 5, 3| 3, 4) =    0.0000000000
 ( 5, 3| 3, 5) =    0.0168691395
 ( 5, 3| 4, 2) =    0.0000000000
 ( 5, 3| 4, 3) =    0.0000000000
 ( 5, 3| 4, 4) =    0.0000000000
 ( 5, 3| 4, 5) =    0.0000000000
 ( 5, 3| 5, 2) =    0.0000000000
 ( 5, 3| 5, 3) =    0.0168691395
 ( 5, 3| 5, 4) =    0.0000000000
 ( 5, 3| 5, 5) =    0.0000000000
 ( 5, 4| 2, 2) =    0.0000000000
 ( 5, 4| 2, 3) =    0.0000000000
 ( 5, 4| 2, 4) =    0.0000000000
 ( 5, 4| 2, 5) =    0.0000000000
 ( 5, 4| 3, 2) =    0.0000000000
 ( 5, 4| 3, 3) =    0.0000000000
 ( 5, 4| 3, 4) =    0.0000000000
 ( 5, 4| 3, 5) =    0.0000000000
 ( 5, 4| 4, 2) =    0.0000000000
 ( 5, 4| 4, 3) =    0.0000000000
 ( 5, 4| 4, 4) =    0.0000000000
 ( 5, 4| 4, 5) =    0.0168691395
 ( 5, 4| 5, 2) =    0.0000000000
 ( 5, 4| 5, 3) =    0.0000000000
 ( 5, 4| 5, 4) =    0.0168691395
 ( 5, 4| 5, 5) =    0.0000000000
 ( 5, 5| 2, 2) =    0.2904969756
 ( 5, 5| 2, 3) =    0.0000000000
 ( 5, 5| 2, 4) =    0.0000000000
 ( 5, 5| 2, 5) =    0.0000000000
 ( 5, 5| 3, 2) =    0.0000000000
 ( 5, 5| 3, 3) =    0.2792072321
 ( 5, 5| 3, 4) =    0.0000000000
 ( 5, 5| 3, 5) =    0.0000000000
 ( 5, 5| 4, 2) =    0.0000000000
 ( 5, 5| 4, 3) =    0.0000000000
 ( 5, 5| 4, 4) =    0.2792072321
 ( 5, 5| 4, 5) =    0.0000000000
 ( 5, 5| 5, 2) =    0.0000000000
 ( 5, 5| 5, 3) =    0.0000000000
 ( 5, 5| 5, 4) =    0.0000000000
 ( 5, 5| 5, 5) =    0.3129455112
 ---------------------------------------
  Cycle       Energy         DIIS Error
 ---------------------------------------
    1      -7.5694039737      5.34E-02

 Q-Chem warning in module 0, line   71:

 AOINTS_DEBUG_PRINT=4

  *** Integrals not dumped for new Path2.  For full
  *** integral dump, compile with -DNO_NEW_PATH2 
 
 AOInts used (LenV =  7749998) to compute the J vector and K matrices
 ( 1, 1| 1, 1) =    1.6803951695
 ( 6, 6| 1, 1) =    0.3305221950
 ( 6, 6| 6, 6) =    0.7746059439
 ( 6, 1| 1, 1) =    0.0720176337
 ( 6, 1| 6, 6) =    0.0270653194
 ( 6, 1| 6, 1) =    0.0040578347
 ( 1, 1| 2, 6) =    0.1514470285
 ( 1, 1| 2, 1) =    0.2654203646
 ( 1, 1| 3, 6) =    0.0000000000
 ( 1, 1| 3, 1) =    0.0000000000
 ( 1, 1| 4, 6) =    0.0000000000
 ( 1, 1| 4, 1) =    0.0000000000
 ( 1, 1| 5, 6) =    0.1825672866
 ( 1, 1| 5, 1) =    0.0000000000
 ( 6, 6| 2, 6) =    0.2228469301
 ( 6, 6| 2, 1) =    0.0793312296
 ( 6, 6| 3, 6) =    0.0000000000
 ( 6, 6| 3, 1) =    0.0000000000
 ( 6, 6| 4, 6) =    0.0000000000
 ( 6, 6| 4, 1) =    0.0000000000
 ( 6, 6| 5, 6) =    0.3233166098
 ( 6, 6| 5, 1) =    0.0153190953
 ( 6, 1| 2, 6) =    0.0115913569
 ( 6, 1| 2, 1) =    0.0136168437
 ( 6, 1| 3, 6) =    0.0000000000
 ( 6, 1| 3, 1) =    0.0000000000
 ( 6, 1| 4, 6) =    0.0000000000
 ( 6, 1| 4, 1) =    0.0000000000
 ( 6, 1| 5, 6) =    0.0147694282
 ( 6, 1| 5, 1) =    0.0016083316
 ( 1, 1| 2, 2) =    0.3977268611
 ( 1, 1| 2, 3) =    0.0000000000
 ( 1, 1| 2, 4) =    0.0000000000
 ( 1, 1| 2, 5) =    0.0000000000
 ( 1, 1| 3, 2) =    0.0000000000
 ( 1, 1| 3, 3) =    0.3966396423
 ( 1, 1| 3, 4) =    0.0000000000
 ( 1, 1| 3, 5) =    0.0000000000
 ( 1, 1| 4, 2) =    0.0000000000
 ( 1, 1| 4, 3) =    0.0000000000
 ( 1, 1| 4, 4) =    0.3966396423
 ( 1, 1| 4, 5) =    0.0000000000
 ( 1, 1| 5, 2) =    0.0000000000
 ( 1, 1| 5, 3) =    0.0000000000
 ( 1, 1| 5, 4) =    0.0000000000
 ( 1, 1| 5, 5) =    0.3966396423
 ( 6, 6| 2, 2) =    0.2814530730
 ( 6, 6| 2, 3) =    0.0000000000
 ( 6, 6| 2, 4) =    0.0000000000
 ( 6, 6| 2, 5) =    0.1058735809
 ( 6, 6| 3, 2) =    0.0000000000
 ( 6, 6| 3, 3) =    0.2570646344
 ( 6, 6| 3, 4) =    0.0000000000
 ( 6, 6| 3, 5) =    0.0000000000
 ( 6, 6| 4, 2) =    0.0000000000
 ( 6, 6| 4, 3) =    0.0000000000
 ( 6, 6| 4, 4) =    0.2570646344
 ( 6, 6| 4, 5) =    0.0000000000
 ( 6, 6| 5, 2) =    0.1058735809
 ( 6, 6| 5, 3) =    0.0000000000
 ( 6, 6| 5, 4) =    0.0000000000
 ( 6, 6| 5, 5) =    0.3298285907
 ( 6, 1| 2, 2) =    0.0257520042
 ( 6, 1| 2, 3) =    0.0000000000
 ( 6, 1| 2, 4) =    0.0000000000
 ( 6, 1| 2, 5) =    0.0031074559
 ( 6, 1| 3, 2) =    0.0000000000
 ( 6, 1| 3, 3) =    0.0254488194
 ( 6, 1| 3, 4) =    0.0000000000
 ( 6, 1| 3, 5) =    0.0000000000
 ( 6, 1| 4, 2) =    0.0000000000
 ( 6, 1| 4, 3) =    0.0000000000
 ( 6, 1| 4, 4) =    0.0254488194
 ( 6, 1| 4, 5) =    0.0000000000
 ( 6, 1| 5, 2) =    0.0031074559
 ( 6, 1| 5, 3) =    0.0000000000
 ( 6, 1| 5, 4) =    0.0000000000
 ( 6, 1| 5, 5) =    0.0263703332
 ( 2, 6| 2, 6) =    0.0743046791
 ( 2, 6| 3, 6) =    0.0000000000
 ( 2, 6| 4, 6) =    0.0000000000
 ( 2, 6| 5, 6) =    0.1035610849
 ( 3, 6| 2, 6) =    0.0000000000
 ( 3, 6| 3, 6) =    0.0056683401
 ( 3, 6| 4, 6) =    0.0000000000
 ( 3, 6| 5, 6) =    0.0000000000
 ( 4, 6| 2, 6) =    0.0000000000
 ( 4, 6| 3, 6) =    0.0000000000
 ( 4, 6| 4, 6) =    0.0056683401
 ( 4, 6| 5, 6) =    0.0000000000
 ( 5, 6| 2, 6) =    0.1035610849
 ( 5, 6| 3, 6) =    0.0000000000
 ( 5, 6| 4, 6) =    0.0000000000
 ( 5, 6| 5, 6) =    0.1467486644
 ( 2, 1| 2, 6) =    0.0356972456
 ( 2, 1| 2, 1) =    0.0499414572
 ( 2, 1| 3, 6) =    0.0000000000
 ( 2, 1| 3, 1) =    0.0000000000
 ( 2, 1| 4, 6) =    0.0000000000
 ( 2, 1| 4, 1) =    0.0000000000
 ( 2, 1| 5, 6) =    0.0435263966
 ( 2, 1| 5, 1) =    0.0000000000
 ( 3, 1| 2, 6) =    0.0000000000
 ( 3, 1| 2, 1) =    0.0000000000
 ( 3, 1| 3, 6) =    0.0030366495
 ( 3, 1| 3, 1) =    0.0089813193
 ( 3, 1| 4, 6) =    0.0000000000
 ( 3, 1| 4, 1) =    0.0000000000
 ( 3, 1| 5, 6) =    0.0000000000
 ( 3, 1| 5, 1) =    0.0000000000
 ( 4, 1| 2, 6) =    0.0000000000
 ( 4, 1| 2, 1) =    0.0000000000
 ( 4, 1| 3, 6) =    0.0000000000
 ( 4, 1| 3, 1) =    0.0000000000
 ( 4, 1| 4, 6) =    0.0030366495
 ( 4, 1| 4, 1) =    0.0089813193
 ( 4, 1| 5, 6) =    0.0000000000
 ( 4, 1| 5, 1) =    0.0000000000
 ( 5, 1| 2, 6) =    0.0058278744
 ( 5, 1| 2, 1) =    0.0000000000
 ( 5, 1| 3, 6) =    0.0000000000
 ( 5, 1| 3, 1) =    0.0000000000
 ( 5, 1| 4, 6) =    0.0000000000
 ( 5, 1| 4, 1) =    0.0000000000
 ( 5, 1| 5, 6) =    0.0090724452
 ( 5, 1| 5, 1) =    0.0089813193
 ( 2, 6| 2, 2) =    0.1159993520
 ( 2, 6| 2, 3) =    0.0000000000
 ( 2, 6| 2, 4) =    0.0000000000
 ( 2, 6| 2, 5) =    0.0337640065
 ( 2, 6| 3, 2) =    0.0000000000
 ( 2, 6| 3, 3) =    0.1102618030
 ( 2, 6| 3, 4) =    0.0000000000
 ( 2, 6| 3, 5) =    0.0000000000
 ( 2, 6| 4, 2) =    0.0000000000
 ( 2, 6| 4, 3) =    0.0000000000
 ( 2, 6| 4, 4) =    0.1102618030
 ( 2, 6| 4, 5) =    0.0000000000
 ( 2, 6| 5, 2) =    0.0337640065
 ( 2, 6| 5, 3) =    0.0000000000
 ( 2, 6| 5, 4) =    0.0000000000
 ( 2, 6| 5, 5) =    0.1273520869
 ( 3, 6| 2, 2) =    0.0000000000
 ( 3, 6| 2, 3) =    0.0136575064
 ( 3, 6| 2, 4) =    0.0000000000
 ( 3, 6| 2, 5) =    0.0000000000
 ( 3, 6| 3, 2) =    0.0136575064
 ( 3, 6| 3, 3) =    0.0000000000
 ( 3, 6| 3, 4) =    0.0000000000
 ( 3, 6| 3, 5) =    0.0053549540
 ( 3, 6| 4, 2) =    0.0000000000
 ( 3, 6| 4, 3) =    0.0000000000
 ( 3, 6| 4, 4) =    0.0000000000
 ( 3, 6| 4, 5) =    0.0000000000
 ( 3, 6| 5, 2) =    0.0000000000
 ( 3, 6| 5, 3) =    0.0053549540
 ( 3, 6| 5, 4) =    0.0000000000
 ( 3, 6| 5, 5) =    0.0000000000
 ( 4, 6| 2, 2) =    0.0000000000
 ( 4, 6| 2, 3) =    0.0000000000
 ( 4, 6| 2, 4) =    0.0136575064
 ( 4, 6| 2, 5) =    0.0000000000
 ( 4, 6| 3, 2) =    0.0000000000
 ( 4, 6| 3, 3) =    0.0000000000
 ( 4, 6| 3, 4) =    0.0000000000
 ( 4, 6| 3, 5) =    0.0000000000
 ( 4, 6| 4, 2) =    0.0136575064
 ( 4, 6| 4, 3) =    0.0000000000
 ( 4, 6| 4, 4) =    0.0000000000
 ( 4, 6| 4, 5) =    0.0053549540
 ( 4, 6| 5, 2) =    0.0000000000
 ( 4, 6| 5, 3) =    0.0000000000
 ( 4, 6| 5, 4) =    0.0053549540
 ( 4, 6| 5, 5) =    0.0000000000
 ( 5, 6| 2, 2) =    0.1469830696
 ( 5, 6| 2, 3) =    0.0000000000
 ( 5, 6| 2, 4) =    0.0000000000
 ( 5, 6| 2, 5) =    0.0516490313
 ( 5, 6| 3, 2) =    0.0000000000
 ( 5, 6| 3, 3) =    0.1371663806
 ( 5, 6| 3, 4) =    0.0000000000
 ( 5, 6| 3, 5) =    0.0000000000
 ( 5, 6| 4, 2) =    0.0000000000
 ( 5, 6| 4, 3) =    0.0000000000
 ( 5, 6| 4, 4) =    0.1371663806
 ( 5, 6| 4, 5) =    0.0000000000
 ( 5, 6| 5, 2) =    0.0516490313
 ( 5, 6| 5, 3) =    0.0000000000
 ( 5, 6| 5, 4) =    0.0000000000
 ( 5, 6| 5, 5) =    0.1664352431
 ( 2, 1| 2, 2) =    0.0928601436
 ( 2, 1| 2, 3) =    0.0000000000
 ( 2, 1| 2, 4) =    0.0000000000
 ( 2, 1| 2, 5) =    0.0000000000
 ( 2, 1| 3, 2) =    0.0000000000
 ( 2, 1| 3, 3) =    0.0928803968
 ( 2, 1| 3, 4) =    0.0000000000
 ( 2, 1| 3, 5) =    0.0000000000
 ( 2, 1| 4, 2) =    0.0000000000
 ( 2, 1| 4, 3) =    0.0000000000
 ( 2, 1| 4, 4) =    0.0928803968
 ( 2, 1| 4, 5) =    0.0000000000
 ( 2, 1| 5, 2) =    0.0000000000
 ( 2, 1| 5, 3) =    0.0000000000
 ( 2, 1| 5, 4) =    0.0000000000
 ( 2, 1| 5, 5) =    0.0928803968
 ( 3, 1| 2, 2) =    0.0000000000
 ( 3, 1| 2, 3) =    0.0137882689
 ( 3, 1| 2, 4) =    0.0000000000
 ( 3, 1| 2, 5) =    0.0000000000
 ( 3, 1| 3, 2) =    0.0137882689
 ( 3, 1| 3, 3) =    0.0000000000
 ( 3, 1| 3, 4) =    0.0000000000
 ( 3, 1| 3, 5) =    0.0000000000
 ( 3, 1| 4, 2) =    0.0000000000
 ( 3, 1| 4, 3) =    0.0000000000
 ( 3, 1| 4, 4) =    0.0000000000
 ( 3, 1| 4, 5) =    0.0000000000
 ( 3, 1| 5, 2) =    0.0000000000
 ( 3, 1| 5, 3) =    0.0000000000
 ( 3, 1| 5, 4) =    0.0000000000
 ( 3, 1| 5, 5) =    0.0000000000
 ( 4, 1| 2, 2) =    0.0000000000
 ( 4, 1| 2, 3) =    0.0000000000
 ( 4, 1| 2, 4) =    0.0137882689
 ( 4, 1| 2, 5) =    0.0000000000
 ( 4, 1| 3, 2) =    0.0000000000
 ( 4, 1| 3, 3) =    0.0000000000
 ( 4, 1| 3, 4) =    0.0000000000
 ( 4, 1| 3, 5) =    0.0000000000
 ( 4, 1| 4, 2) =    0.0137882689
 ( 4, 1| 4, 3) =    0.0000000000
 ( 4, 1| 4, 4) =    0.0000000000
 ( 4, 1| 4, 5) =    0.0000000000
 ( 4, 1| 5, 2) =    0.0000000000
 ( 4, 1| 5, 3) =    0.0000000000
 ( 4, 1| 5, 4) =    0.0000000000
 ( 4, 1| 5, 5) =    0.0000000000
 ( 5, 1| 2, 2) =    0.0000000000
 ( 5, 1| 2, 3) =    0.0000000000
 ( 5, 1| 2, 4) =    0.0000000000
 ( 5, 1| 2, 5) =    0.0137882689
 ( 5, 1| 3, 2) =    0.0000000000
 ( 5, 1| 3, 3) =    0.0000000000
 ( 5, 1| 3, 4) =    0.0000000000
 ( 5, 1| 3, 5) =    0.0000000000
 ( 5, 1| 4, 2) =    0.0000000000
 ( 5, 1| 4, 3) =    0.0000000000
 ( 5, 1| 4, 4) =    0.0000000000
 ( 5, 1| 4, 5) =    0.0000000000
 ( 5, 1| 5, 2) =    0.0137882689
 ( 5, 1| 5, 3) =    0.0000000000
 ( 5, 1| 5, 4) =    0.0000000000
 ( 5, 1| 5, 5) =    0.0000000000
 ( 2, 2| 2, 2) =    0.2905622950
 ( 2, 2| 2, 3) =    0.0000000000
 ( 2, 2| 2, 4) =    0.0000000000
 ( 2, 2| 2, 5) =    0.0000000000
 ( 2, 2| 3, 2) =    0.0000000000
 ( 2, 2| 3, 3) =    0.2904969756
 ( 2, 2| 3, 4) =    0.0000000000
 ( 2, 2| 3, 5) =    0.0000000000
 ( 2, 2| 4, 2) =    0.0000000000
 ( 2, 2| 4, 3) =    0.0000000000
 ( 2, 2| 4, 4) =    0.2904969756
 ( 2, 2| 4, 5) =    0.0000000000
 ( 2, 2| 5, 2) =    0.0000000000
 ( 2, 2| 5, 3) =    0.0000000000
 ( 2, 2| 5, 4) =    0.0000000000
 ( 2, 2| 5, 5) =    0.2904969756
 ( 2, 3| 2, 2) =    0.0000000000
 ( 2, 3| 2, 3) =    0.0641843286
 ( 2, 3| 2, 4) =    0.0000000000
 ( 2, 3| 2, 5) =    0.0000000000
 ( 2, 3| 3, 2) =    0.0641843286
 ( 2, 3| 3, 3) =    0.0000000000
 ( 2, 3| 3, 4) =    0.0000000000
 ( 2, 3| 3, 5) =    0.0000000000
 ( 2, 3| 4, 2) =    0.0000000000
 ( 2, 3| 4, 3) =    0.0000000000
 ( 2, 3| 4, 4) =    0.0000000000
 ( 2, 3| 4, 5) =    0.0000000000
 ( 2, 3| 5, 2) =    0.0000000000
 ( 2, 3| 5, 3) =    0.0000000000
 ( 2, 3| 5, 4) =    0.0000000000
 ( 2, 3| 5, 5) =    0.0000000000
 ( 2, 4| 2, 2) =    0.0000000000
 ( 2, 4| 2, 3) =    0.0000000000
 ( 2, 4| 2, 4) =    0.0641843286
 ( 2, 4| 2, 5) =    0.0000000000
 ( 2, 4| 3, 2) =    0.0000000000
 ( 2, 4| 3, 3) =    0.0000000000
 ( 2, 4| 3, 4) =    0.0000000000
 ( 2, 4| 3, 5) =    0.0000000000
 ( 2, 4| 4, 2) =    0.0641843286
 ( 2, 4| 4, 3) =    0.0000000000
 ( 2, 4| 4, 4) =    0.0000000000
 ( 2, 4| 4, 5) =    0.0000000000
 ( 2, 4| 5, 2) =    0.0000000000
 ( 2, 4| 5, 3) =    0.0000000000
 ( 2, 4| 5, 4) =    0.0000000000
 ( 2, 4| 5, 5) =    0.0000000000
 ( 2, 5| 2, 2) =    0.0000000000
 ( 2, 5| 2, 3) =    0.0000000000
 ( 2, 5| 2, 4) =    0.0000000000
 ( 2, 5| 2, 5) =    0.0641843286
 ( 2, 5| 3, 2) =    0.0000000000
 ( 2, 5| 3, 3) =    0.0000000000
 ( 2, 5| 3, 4) =    0.0000000000
 ( 2, 5| 3, 5) =    0.0000000000
 ( 2, 5| 4, 2) =    0.0000000000
 ( 2, 5| 4, 3) =    0.0000000000
 ( 2, 5| 4, 4) =    0.0000000000
 ( 2, 5| 4, 5) =    0.0000000000
 ( 2, 5| 5, 2) =    0.0641843286
 ( 2, 5| 5, 3) =    0.0000000000
 ( 2, 5| 5, 4) =    0.0000000000
 ( 2, 5| 5, 5) =    0.0000000000
 ( 3, 2| 2, 2) =    0.0000000000
 ( 3, 2| 2, 3) =    0.0641843286
 ( 3, 2| 2, 4) =    0.0000000000
 ( 3, 2| 2, 5) =    0.0000000000
 ( 3, 2| 3, 2) =    0.0641843286
 ( 3, 2| 3, 3) =    0.0000000000
 ( 3, 2| 3, 4) =    0.0000000000
 ( 3, 2| 3, 5) =    0.0000000000
 ( 3, 2| 4, 2) =    0.0000000000
 ( 3, 2| 4, 3) =    0.0000000000
 ( 3, 2| 4, 4) =    0.0000000000
 ( 3, 2| 4, 5) =    0.0000000000
 ( 3, 2| 5, 2) =    0.0000000000
 ( 3, 2| 5, 3) =    0.0000000000
 ( 3, 2| 5, 4) =    0.0000000000
 ( 3, 2| 5, 5) =    0.0000000000
 ( 3, 3| 2, 2) =    0.2904969756
 ( 3, 3| 2, 3) =    0.0000000000
 ( 3, 3| 2, 4) =    0.0000000000
 ( 3, 3| 2, 5) =    0.0000000000
 ( 3, 3| 3, 2) =    0.0000000000
 ( 3, 3| 3, 3) =    0.3129455112
 ( 3, 3| 3, 4) =    0.0000000000
 ( 3, 3| 3, 5) =    0.0000000000
 ( 3, 3| 4, 2) =    0.0000000000
 ( 3, 3| 4, 3) =    0.0000000000
 ( 3, 3| 4, 4) =    0.2792072321
 ( 3, 3| 4, 5) =    0.0000000000
 ( 3, 3| 5, 2) =    0.0000000000
 ( 3, 3| 5, 3) =    0.0000000000
 ( 3, 3| 5, 4) =    0.0000000000
 ( 3, 3| 5, 5) =    0.2792072321
 ( 3, 4| 2, 2) =    0.0000000000
 ( 3, 4| 2, 3) =    0.0000000000
 ( 3, 4| 2, 4) =    0.0000000000
 ( 3, 4| 2, 5) =    0.0000000000
 ( 3, 4| 3, 2) =    0.0000000000
 ( 3, 4| 3, 3) =    0.0000000000
 ( 3, 4| 3, 4) =    0.0168691395
 ( 3, 4| 3, 5) =    0.0000000000
 ( 3, 4| 4, 2) =    0.0000000000
 ( 3, 4| 4, 3) =    0.0168691395
 ( 3, 4| 4, 4) =    0.0000000000
 ( 3, 4| 4, 5) =    0.0000000000
 ( 3, 4| 5, 2) =    0.0000000000
 ( 3, 4| 5, 3) =    0.0000000000
 ( 3, 4| 5, 4) =    0.0000000000
 ( 3, 4| 5, 5) =    0.0000000000
 ( 3, 5| 2, 2) =    0.0000000000
 ( 3, 5| 2, 3) =    0.0000000000
 ( 3, 5| 2, 4) =    0.0000000000
 ( 3, 5| 2, 5) =    0.0000000000
 ( 3, 5| 3, 2) =    0.0000000000
 ( 3, 5| 3, 3) =    0.0000000000
 ( 3, 5| 3, 4) =    0.0000000000
 ( 3, 5| 3, 5) =    0.0168691395
 ( 3, 5| 4, 2) =    0.0000000000
 ( 3, 5| 4, 3) =    0.0000000000
 ( 3, 5| 4, 4) =    0.0000000000
 ( 3, 5| 4, 5) =    0.0000000000
 ( 3, 5| 5, 2) =    0.0000000000
 ( 3, 5| 5, 3) =    0.0168691395
 ( 3, 5| 5, 4) =    0.0000000000
 ( 3, 5| 5, 5) =    0.0000000000
 ( 4, 2| 2, 2) =    0.0000000000
 ( 4, 2| 2, 3) =    0.0000000000
 ( 4, 2| 2, 4) =    0.0641843286
 ( 4, 2| 2, 5) =    0.0000000000
 ( 4, 2| 3, 2) =    0.0000000000
 ( 4, 2| 3, 3) =    0.0000000000
 ( 4, 2| 3, 4) =    0.0000000000
 ( 4, 2| 3, 5) =    0.0000000000
 ( 4, 2| 4, 2) =    0.0641843286
 ( 4, 2| 4, 3) =    0.0000000000
 ( 4, 2| 4, 4) =    0.0000000000
 ( 4, 2| 4, 5) =    0.0000000000
 ( 4, 2| 5, 2) =    0.0000000000
 ( 4, 2| 5, 3) =    0.0000000000
 ( 4, 2| 5, 4) =    0.0000000000
 ( 4, 2| 5, 5) =    0.0000000000
 ( 4, 3| 2, 2) =    0.0000000000
 ( 4, 3| 2, 3) =    0.0000000000
 ( 4, 3| 2, 4) =    0.0000000000
 ( 4, 3| 2, 5) =    0.0000000000
 ( 4, 3| 3, 2) =    0.0000000000
 ( 4, 3| 3, 3) =    0.0000000000
 ( 4, 3| 3, 4) =    0.0168691395
 ( 4, 3| 3, 5) =    0.0000000000
 ( 4, 3| 4, 2) =    0.0000000000
 ( 4, 3| 4, 3) =    0.0168691395
 ( 4, 3| 4, 4) =    0.0000000000
 ( 4, 3| 4, 5) =    0.0000000000
 ( 4, 3| 5, 2) =    0.0000000000
 ( 4, 3| 5, 3) =    0.0000000000
 ( 4, 3| 5, 4) =    0.0000000000
 ( 4, 3| 5, 5) =    0.0000000000
 ( 4, 4| 2, 2) =    0.2904969756
 ( 4, 4| 2, 3) =    0.0000000000
 ( 4, 4| 2, 4) =    0.0000000000
 ( 4, 4| 2, 5) =    0.0000000000
 ( 4, 4| 3, 2) =    0.0000000000
 ( 4, 4| 3, 3) =    0.2792072321
 ( 4, 4| 3, 4) =    0.0000000000
 ( 4, 4| 3, 5) =    0.0000000000
 ( 4, 4| 4, 2) =    0.0000000000
 ( 4, 4| 4, 3) =    0.0000000000
 ( 4, 4| 4, 4) =    0.3129455112
 ( 4, 4| 4, 5) =    0.0000000000
 ( 4, 4| 5, 2) =    0.0000000000
 ( 4, 4| 5, 3) =    0.0000000000
 ( 4, 4| 5, 4) =    0.0000000000
 ( 4, 4| 5, 5) =    0.2792072321
 ( 4, 5| 2, 2) =    0.0000000000
 ( 4, 5| 2, 3) =    0.0000000000
 ( 4, 5| 2, 4) =    0.0000000000
 ( 4, 5| 2, 5) =    0.0000000000
 ( 4, 5| 3, 2) =    0.0000000000
 ( 4, 5| 3, 3) =    0.0000000000
 ( 4, 5| 3, 4) =    0.0000000000
 ( 4, 5| 3, 5) =    0.0000000000
 ( 4, 5| 4, 2) =    0.0000000000
 ( 4, 5| 4, 3) =    0.0000000000
 ( 4, 5| 4, 4) =    0.0000000000
 ( 4, 5| 4, 5) =    0.0168691395
 ( 4, 5| 5, 2) =    0.0000000000
 ( 4, 5| 5, 3) =    0.0000000000
 ( 4, 5| 5, 4) =    0.0168691395
 ( 4, 5| 5, 5) =    0.0000000000
 ( 5, 2| 2, 2) =    0.0000000000
 ( 5, 2| 2, 3) =    0.0000000000
 ( 5, 2| 2, 4) =    0.0000000000
 ( 5, 2| 2, 5) =    0.0641843286
 ( 5, 2| 3, 2) =    0.0000000000
 ( 5, 2| 3, 3) =    0.0000000000
 ( 5, 2| 3, 4) =    0.0000000000
 ( 5, 2| 3, 5) =    0.0000000000
 ( 5, 2| 4, 2) =    0.0000000000
 ( 5, 2| 4, 3) =    0.0000000000
 ( 5, 2| 4, 4) =    0.0000000000
 ( 5, 2| 4, 5) =    0.0000000000
 ( 5, 2| 5, 2) =    0.0641843286
 ( 5, 2| 5, 3) =    0.0000000000
 ( 5, 2| 5, 4) =    0.0000000000
 ( 5, 2| 5, 5) =    0.0000000000
 ( 5, 3| 2, 2) =    0.0000000000
 ( 5, 3| 2, 3) =    0.0000000000
 ( 5, 3| 2, 4) =    0.0000000000
 ( 5, 3| 2, 5) =    0.0000000000
 ( 5, 3| 3, 2) =    0.0000000000
 ( 5, 3| 3, 3) =    0.0000000000
 ( 5, 3| 3, 4) =    0.0000000000
 ( 5, 3| 3, 5) =    0.0168691395
 ( 5, 3| 4, 2) =    0.0000000000
 ( 5, 3| 4, 3) =    0.0000000000
 ( 5, 3| 4, 4) =    0.0000000000
 ( 5, 3| 4, 5) =    0.0000000000
 ( 5, 3| 5, 2) =    0.0000000000
 ( 5, 3| 5, 3) =    0.0168691395
 ( 5, 3| 5, 4) =    0.0000000000
 ( 5, 3| 5, 5) =    0.0000000000
 ( 5, 4| 2, 2) =    0.0000000000
 ( 5, 4| 2, 3) =    0.0000000000
 ( 5, 4| 2, 4) =    0.0000000000
 ( 5, 4| 2, 5) =    0.0000000000
 ( 5, 4| 3, 2) =    0.0000000000
 ( 5, 4| 3, 3) =    0.0000000000
 ( 5, 4| 3, 4) =    0.0000000000
 ( 5, 4| 3, 5) =    0.0000000000
 ( 5, 4| 4, 2) =    0.0000000000
 ( 5, 4| 4, 3) =    0.0000000000
 ( 5, 4| 4, 4) =    0.0000000000
 ( 5, 4| 4, 5) =    0.0168691395
 ( 5, 4| 5, 2) =    0.0000000000
 ( 5, 4| 5, 3) =    0.0000000000
 ( 5, 4| 5, 4) =    0.0168691395
 ( 5, 4| 5, 5) =    0.0000000000
 ( 5, 5| 2, 2) =    0.2904969756
 ( 5, 5| 2, 3) =    0.0000000000
 ( 5, 5| 2, 4) =    0.0000000000
 ( 5, 5| 2, 5) =    0.0000000000
 ( 5, 5| 3, 2) =    0.0000000000
 ( 5, 5| 3, 3) =    0.2792072321
 ( 5, 5| 3, 4) =    0.0000000000
 ( 5, 5| 3, 5) =    0.0000000000
 ( 5, 5| 4, 2) =    0.0000000000
 ( 5, 5| 4, 3) =    0.0000000000
 ( 5, 5| 4, 4) =    0.2792072321
 ( 5, 5| 4, 5) =    0.0000000000
 ( 5, 5| 5, 2) =    0.0000000000
 ( 5, 5| 5, 3) =    0.0000000000
 ( 5, 5| 5, 4) =    0.0000000000
 ( 5, 5| 5, 5) =    0.3129455112
    2      -7.8528596007      2.46E-02

 Q-Chem warning in module 0, line   71:

 AOINTS_DEBUG_PRINT=4

  *** Integrals not dumped for new Path2.  For full
  *** integral dump, compile with -DNO_NEW_PATH2 
 
 AOInts used (LenV =  7749998) to compute the J vector and K matrices
 ( 1, 1| 1, 1) =    1.6803951695
 ( 6, 6| 1, 1) =    0.3305221950
 ( 6, 6| 6, 6) =    0.7746059439
 ( 6, 1| 1, 1) =    0.0720176337
 ( 6, 1| 6, 6) =    0.0270653194
 ( 6, 1| 6, 1) =    0.0040578347
 ( 1, 1| 2, 6) =    0.1514470285
 ( 1, 1| 2, 1) =    0.2654203646
 ( 1, 1| 3, 6) =    0.0000000000
 ( 1, 1| 3, 1) =    0.0000000000
 ( 1, 1| 4, 6) =    0.0000000000
 ( 1, 1| 4, 1) =    0.0000000000
 ( 1, 1| 5, 6) =    0.1825672866
 ( 1, 1| 5, 1) =    0.0000000000
 ( 6, 6| 2, 6) =    0.2228469301
 ( 6, 6| 2, 1) =    0.0793312296
 ( 6, 6| 3, 6) =    0.0000000000
 ( 6, 6| 3, 1) =    0.0000000000
 ( 6, 6| 4, 6) =    0.0000000000
 ( 6, 6| 4, 1) =    0.0000000000
 ( 6, 6| 5, 6) =    0.3233166098
 ( 6, 6| 5, 1) =    0.0153190953
 ( 6, 1| 2, 6) =    0.0115913569
 ( 6, 1| 2, 1) =    0.0136168437
 ( 6, 1| 3, 6) =    0.0000000000
 ( 6, 1| 3, 1) =    0.0000000000
 ( 6, 1| 4, 6) =    0.0000000000
 ( 6, 1| 4, 1) =    0.0000000000
 ( 6, 1| 5, 6) =    0.0147694282
 ( 6, 1| 5, 1) =    0.0016083316
 ( 1, 1| 2, 2) =    0.3977268611
 ( 1, 1| 2, 3) =    0.0000000000
 ( 1, 1| 2, 4) =    0.0000000000
 ( 1, 1| 2, 5) =    0.0000000000
 ( 1, 1| 3, 2) =    0.0000000000
 ( 1, 1| 3, 3) =    0.3966396423
 ( 1, 1| 3, 4) =    0.0000000000
 ( 1, 1| 3, 5) =    0.0000000000
 ( 1, 1| 4, 2) =    0.0000000000
 ( 1, 1| 4, 3) =    0.0000000000
 ( 1, 1| 4, 4) =    0.3966396423
 ( 1, 1| 4, 5) =    0.0000000000
 ( 1, 1| 5, 2) =    0.0000000000
 ( 1, 1| 5, 3) =    0.0000000000
 ( 1, 1| 5, 4) =    0.0000000000
 ( 1, 1| 5, 5) =    0.3966396423
 ( 6, 6| 2, 2) =    0.2814530730
 ( 6, 6| 2, 3) =    0.0000000000
 ( 6, 6| 2, 4) =    0.0000000000
 ( 6, 6| 2, 5) =    0.1058735809
 ( 6, 6| 3, 2) =    0.0000000000
 ( 6, 6| 3, 3) =    0.2570646344
 ( 6, 6| 3, 4) =    0.0000000000
 ( 6, 6| 3, 5) =    0.0000000000
 ( 6, 6| 4, 2) =    0.0000000000
 ( 6, 6| 4, 3) =    0.0000000000
 ( 6, 6| 4, 4) =    0.2570646344
 ( 6, 6| 4, 5) =    0.0000000000
 ( 6, 6| 5, 2) =    0.1058735809
 ( 6, 6| 5, 3) =    0.0000000000
 ( 6, 6| 5, 4) =    0.0000000000
 ( 6, 6| 5, 5) =    0.3298285907
 ( 6, 1| 2, 2) =    0.0257520042
 ( 6, 1| 2, 3) =    0.0000000000
 ( 6, 1| 2, 4) =    0.0000000000
 ( 6, 1| 2, 5) =    0.0031074559
 ( 6, 1| 3, 2) =    0.0000000000
 ( 6, 1| 3, 3) =    0.0254488194
 ( 6, 1| 3, 4) =    0.0000000000
 ( 6, 1| 3, 5) =    0.0000000000
 ( 6, 1| 4, 2) =    0.0000000000
 ( 6, 1| 4, 3) =    0.0000000000
 ( 6, 1| 4, 4) =    0.0254488194
 ( 6, 1| 4, 5) =    0.0000000000
 ( 6, 1| 5, 2) =    0.0031074559
 ( 6, 1| 5, 3) =    0.0000000000
 ( 6, 1| 5, 4) =    0.0000000000
 ( 6, 1| 5, 5) =    0.0263703332
 ( 2, 6| 2, 6) =    0.0743046791
 ( 2, 6| 3, 6) =    0.0000000000
 ( 2, 6| 4, 6) =    0.0000000000
 ( 2, 6| 5, 6) =    0.1035610849
 ( 3, 6| 2, 6) =    0.0000000000
 ( 3, 6| 3, 6) =    0.0056683401
 ( 3, 6| 4, 6) =    0.0000000000
 ( 3, 6| 5, 6) =    0.0000000000
 ( 4, 6| 2, 6) =    0.0000000000
 ( 4, 6| 3, 6) =    0.0000000000
 ( 4, 6| 4, 6) =    0.0056683401
 ( 4, 6| 5, 6) =    0.0000000000
 ( 5, 6| 2, 6) =    0.1035610849
 ( 5, 6| 3, 6) =    0.0000000000
 ( 5, 6| 4, 6) =    0.0000000000
 ( 5, 6| 5, 6) =    0.1467486644
 ( 2, 1| 2, 6) =    0.0356972456
 ( 2, 1| 2, 1) =    0.0499414572
 ( 2, 1| 3, 6) =    0.0000000000
 ( 2, 1| 3, 1) =    0.0000000000
 ( 2, 1| 4, 6) =    0.0000000000
 ( 2, 1| 4, 1) =    0.0000000000
 ( 2, 1| 5, 6) =    0.0435263966
 ( 2, 1| 5, 1) =    0.0000000000
 ( 3, 1| 2, 6) =    0.0000000000
 ( 3, 1| 2, 1) =    0.0000000000
 ( 3, 1| 3, 6) =    0.0030366495
 ( 3, 1| 3, 1) =    0.0089813193
 ( 3, 1| 4, 6) =    0.0000000000
 ( 3, 1| 4, 1) =    0.0000000000
 ( 3, 1| 5, 6) =    0.0000000000
 ( 3, 1| 5, 1) =    0.0000000000
 ( 4, 1| 2, 6) =    0.0000000000
 ( 4, 1| 2, 1) =    0.0000000000
 ( 4, 1| 3, 6) =    0.0000000000
 ( 4, 1| 3, 1) =    0.0000000000
 ( 4, 1| 4, 6) =    0.0030366495
 ( 4, 1| 4, 1) =    0.0089813193
 ( 4, 1| 5, 6) =    0.0000000000
 ( 4, 1| 5, 1) =    0.0000000000
 ( 5, 1| 2, 6) =    0.0058278744
 ( 5, 1| 2, 1) =    0.0000000000
 ( 5, 1| 3, 6) =    0.0000000000
 ( 5, 1| 3, 1) =    0.0000000000
 ( 5, 1| 4, 6) =    0.0000000000
 ( 5, 1| 4, 1) =    0.0000000000
 ( 5, 1| 5, 6) =    0.0090724452
 ( 5, 1| 5, 1) =    0.0089813193
 ( 2, 6| 2, 2) =    0.1159993520
 ( 2, 6| 2, 3) =    0.0000000000
 ( 2, 6| 2, 4) =    0.0000000000
 ( 2, 6| 2, 5) =    0.0337640065
 ( 2, 6| 3, 2) =    0.0000000000
 ( 2, 6| 3, 3) =    0.1102618030
 ( 2, 6| 3, 4) =    0.0000000000
 ( 2, 6| 3, 5) =    0.0000000000
 ( 2, 6| 4, 2) =    0.0000000000
 ( 2, 6| 4, 3) =    0.0000000000
 ( 2, 6| 4, 4) =    0.1102618030
 ( 2, 6| 4, 5) =    0.0000000000
 ( 2, 6| 5, 2) =    0.0337640065
 ( 2, 6| 5, 3) =    0.0000000000
 ( 2, 6| 5, 4) =    0.0000000000
 ( 2, 6| 5, 5) =    0.1273520869
 ( 3, 6| 2, 2) =    0.0000000000
 ( 3, 6| 2, 3) =    0.0136575064
 ( 3, 6| 2, 4) =    0.0000000000
 ( 3, 6| 2, 5) =    0.0000000000
 ( 3, 6| 3, 2) =    0.0136575064
 ( 3, 6| 3, 3) =    0.0000000000
 ( 3, 6| 3, 4) =    0.0000000000
 ( 3, 6| 3, 5) =    0.0053549540
 ( 3, 6| 4, 2) =    0.0000000000
 ( 3, 6| 4, 3) =    0.0000000000
 ( 3, 6| 4, 4) =    0.0000000000
 ( 3, 6| 4, 5) =    0.0000000000
 ( 3, 6| 5, 2) =    0.0000000000
 ( 3, 6| 5, 3) =    0.0053549540
 ( 3, 6| 5, 4) =    0.0000000000
 ( 3, 6| 5, 5) =    0.0000000000
 ( 4, 6| 2, 2) =    0.0000000000
 ( 4, 6| 2, 3) =    0.0000000000
 ( 4, 6| 2, 4) =    0.0136575064
 ( 4, 6| 2, 5) =    0.0000000000
 ( 4, 6| 3, 2) =    0.0000000000
 ( 4, 6| 3, 3) =    0.0000000000
 ( 4, 6| 3, 4) =    0.0000000000
 ( 4, 6| 3, 5) =    0.0000000000
 ( 4, 6| 4, 2) =    0.0136575064
 ( 4, 6| 4, 3) =    0.0000000000
 ( 4, 6| 4, 4) =    0.0000000000
 ( 4, 6| 4, 5) =    0.0053549540
 ( 4, 6| 5, 2) =    0.0000000000
 ( 4, 6| 5, 3) =    0.0000000000
 ( 4, 6| 5, 4) =    0.0053549540
 ( 4, 6| 5, 5) =    0.0000000000
 ( 5, 6| 2, 2) =    0.1469830696
 ( 5, 6| 2, 3) =    0.0000000000
 ( 5, 6| 2, 4) =    0.0000000000
 ( 5, 6| 2, 5) =    0.0516490313
 ( 5, 6| 3, 2) =    0.0000000000
 ( 5, 6| 3, 3) =    0.1371663806
 ( 5, 6| 3, 4) =    0.0000000000
 ( 5, 6| 3, 5) =    0.0000000000
 ( 5, 6| 4, 2) =    0.0000000000
 ( 5, 6| 4, 3) =    0.0000000000
 ( 5, 6| 4, 4) =    0.1371663806
 ( 5, 6| 4, 5) =    0.0000000000
 ( 5, 6| 5, 2) =    0.0516490313
 ( 5, 6| 5, 3) =    0.0000000000
 ( 5, 6| 5, 4) =    0.0000000000
 ( 5, 6| 5, 5) =    0.1664352431
 ( 2, 1| 2, 2) =    0.0928601436
 ( 2, 1| 2, 3) =    0.0000000000
 ( 2, 1| 2, 4) =    0.0000000000
 ( 2, 1| 2, 5) =    0.0000000000
 ( 2, 1| 3, 2) =    0.0000000000
 ( 2, 1| 3, 3) =    0.0928803968
 ( 2, 1| 3, 4) =    0.0000000000
 ( 2, 1| 3, 5) =    0.0000000000
 ( 2, 1| 4, 2) =    0.0000000000
 ( 2, 1| 4, 3) =    0.0000000000
 ( 2, 1| 4, 4) =    0.0928803968
 ( 2, 1| 4, 5) =    0.0000000000
 ( 2, 1| 5, 2) =    0.0000000000
 ( 2, 1| 5, 3) =    0.0000000000
 ( 2, 1| 5, 4) =    0.0000000000
 ( 2, 1| 5, 5) =    0.0928803968
 ( 3, 1| 2, 2) =    0.0000000000
 ( 3, 1| 2, 3) =    0.0137882689
 ( 3, 1| 2, 4) =    0.0000000000
 ( 3, 1| 2, 5) =    0.0000000000
 ( 3, 1| 3, 2) =    0.0137882689
 ( 3, 1| 3, 3) =    0.0000000000
 ( 3, 1| 3, 4) =    0.0000000000
 ( 3, 1| 3, 5) =    0.0000000000
 ( 3, 1| 4, 2) =    0.0000000000
 ( 3, 1| 4, 3) =    0.0000000000
 ( 3, 1| 4, 4) =    0.0000000000
 ( 3, 1| 4, 5) =    0.0000000000
 ( 3, 1| 5, 2) =    0.0000000000
 ( 3, 1| 5, 3) =    0.0000000000
 ( 3, 1| 5, 4) =    0.0000000000
 ( 3, 1| 5, 5) =    0.0000000000
 ( 4, 1| 2, 2) =    0.0000000000
 ( 4, 1| 2, 3) =    0.0000000000
 ( 4, 1| 2, 4) =    0.0137882689
 ( 4, 1| 2, 5) =    0.0000000000
 ( 4, 1| 3, 2) =    0.0000000000
 ( 4, 1| 3, 3) =    0.0000000000
 ( 4, 1| 3, 4) =    0.0000000000
 ( 4, 1| 3, 5) =    0.0000000000
 ( 4, 1| 4, 2) =    0.0137882689
 ( 4, 1| 4, 3) =    0.0000000000
 ( 4, 1| 4, 4) =    0.0000000000
 ( 4, 1| 4, 5) =    0.0000000000
 ( 4, 1| 5, 2) =    0.0000000000
 ( 4, 1| 5, 3) =    0.0000000000
 ( 4, 1| 5, 4) =    0.0000000000
 ( 4, 1| 5, 5) =    0.0000000000
 ( 5, 1| 2, 2) =    0.0000000000
 ( 5, 1| 2, 3) =    0.0000000000
 ( 5, 1| 2, 4) =    0.0000000000
 ( 5, 1| 2, 5) =    0.0137882689
 ( 5, 1| 3, 2) =    0.0000000000
 ( 5, 1| 3, 3) =    0.0000000000
 ( 5, 1| 3, 4) =    0.0000000000
 ( 5, 1| 3, 5) =    0.0000000000
 ( 5, 1| 4, 2) =    0.0000000000
 ( 5, 1| 4, 3) =    0.0000000000
 ( 5, 1| 4, 4) =    0.0000000000
 ( 5, 1| 4, 5) =    0.0000000000
 ( 5, 1| 5, 2) =    0.0137882689
 ( 5, 1| 5, 3) =    0.0000000000
 ( 5, 1| 5, 4) =    0.0000000000
 ( 5, 1| 5, 5) =    0.0000000000
 ( 2, 2| 2, 2) =    0.2905622950
 ( 2, 2| 2, 3) =    0.0000000000
 ( 2, 2| 2, 4) =    0.0000000000
 ( 2, 2| 2, 5) =    0.0000000000
 ( 2, 2| 3, 2) =    0.0000000000
 ( 2, 2| 3, 3) =    0.2904969756
 ( 2, 2| 3, 4) =    0.0000000000
 ( 2, 2| 3, 5) =    0.0000000000
 ( 2, 2| 4, 2) =    0.0000000000
 ( 2, 2| 4, 3) =    0.0000000000
 ( 2, 2| 4, 4) =    0.2904969756
 ( 2, 2| 4, 5) =    0.0000000000
 ( 2, 2| 5, 2) =    0.0000000000
 ( 2, 2| 5, 3) =    0.0000000000
 ( 2, 2| 5, 4) =    0.0000000000
 ( 2, 2| 5, 5) =    0.2904969756
 ( 2, 3| 2, 2) =    0.0000000000
 ( 2, 3| 2, 3) =    0.0641843286
 ( 2, 3| 2, 4) =    0.0000000000
 ( 2, 3| 2, 5) =    0.0000000000
 ( 2, 3| 3, 2) =    0.0641843286
 ( 2, 3| 3, 3) =    0.0000000000
 ( 2, 3| 3, 4) =    0.0000000000
 ( 2, 3| 3, 5) =    0.0000000000
 ( 2, 3| 4, 2) =    0.0000000000
 ( 2, 3| 4, 3) =    0.0000000000
 ( 2, 3| 4, 4) =    0.0000000000
 ( 2, 3| 4, 5) =    0.0000000000
 ( 2, 3| 5, 2) =    0.0000000000
 ( 2, 3| 5, 3) =    0.0000000000
 ( 2, 3| 5, 4) =    0.0000000000
 ( 2, 3| 5, 5) =    0.0000000000
 ( 2, 4| 2, 2) =    0.0000000000
 ( 2, 4| 2, 3) =    0.0000000000
 ( 2, 4| 2, 4) =    0.0641843286
 ( 2, 4| 2, 5) =    0.0000000000
 ( 2, 4| 3, 2) =    0.0000000000
 ( 2, 4| 3, 3) =    0.0000000000
 ( 2, 4| 3, 4) =    0.0000000000
 ( 2, 4| 3, 5) =    0.0000000000
 ( 2, 4| 4, 2) =    0.0641843286
 ( 2, 4| 4, 3) =    0.0000000000
 ( 2, 4| 4, 4) =    0.0000000000
 ( 2, 4| 4, 5) =    0.0000000000
 ( 2, 4| 5, 2) =    0.0000000000
 ( 2, 4| 5, 3) =    0.0000000000
 ( 2, 4| 5, 4) =    0.0000000000
 ( 2, 4| 5, 5) =    0.0000000000
 ( 2, 5| 2, 2) =    0.0000000000
 ( 2, 5| 2, 3) =    0.0000000000
 ( 2, 5| 2, 4) =    0.0000000000
 ( 2, 5| 2, 5) =    0.0641843286
 ( 2, 5| 3, 2) =    0.0000000000
 ( 2, 5| 3, 3) =    0.0000000000
 ( 2, 5| 3, 4) =    0.0000000000
 ( 2, 5| 3, 5) =    0.0000000000
 ( 2, 5| 4, 2) =    0.0000000000
 ( 2, 5| 4, 3) =    0.0000000000
 ( 2, 5| 4, 4) =    0.0000000000
 ( 2, 5| 4, 5) =    0.0000000000
 ( 2, 5| 5, 2) =    0.0641843286
 ( 2, 5| 5, 3) =    0.0000000000
 ( 2, 5| 5, 4) =    0.0000000000
 ( 2, 5| 5, 5) =    0.0000000000
 ( 3, 2| 2, 2) =    0.0000000000
 ( 3, 2| 2, 3) =    0.0641843286
 ( 3, 2| 2, 4) =    0.0000000000
 ( 3, 2| 2, 5) =    0.0000000000
 ( 3, 2| 3, 2) =    0.0641843286
 ( 3, 2| 3, 3) =    0.0000000000
 ( 3, 2| 3, 4) =    0.0000000000
 ( 3, 2| 3, 5) =    0.0000000000
 ( 3, 2| 4, 2) =    0.0000000000
 ( 3, 2| 4, 3) =    0.0000000000
 ( 3, 2| 4, 4) =    0.0000000000
 ( 3, 2| 4, 5) =    0.0000000000
 ( 3, 2| 5, 2) =    0.0000000000
 ( 3, 2| 5, 3) =    0.0000000000
 ( 3, 2| 5, 4) =    0.0000000000
 ( 3, 2| 5, 5) =    0.0000000000
 ( 3, 3| 2, 2) =    0.2904969756
 ( 3, 3| 2, 3) =    0.0000000000
 ( 3, 3| 2, 4) =    0.0000000000
 ( 3, 3| 2, 5) =    0.0000000000
 ( 3, 3| 3, 2) =    0.0000000000
 ( 3, 3| 3, 3) =    0.3129455112
 ( 3, 3| 3, 4) =    0.0000000000
 ( 3, 3| 3, 5) =    0.0000000000
 ( 3, 3| 4, 2) =    0.0000000000
 ( 3, 3| 4, 3) =    0.0000000000
 ( 3, 3| 4, 4) =    0.2792072321
 ( 3, 3| 4, 5) =    0.0000000000
 ( 3, 3| 5, 2) =    0.0000000000
 ( 3, 3| 5, 3) =    0.0000000000
 ( 3, 3| 5, 4) =    0.0000000000
 ( 3, 3| 5, 5) =    0.2792072321
 ( 3, 4| 2, 2) =    0.0000000000
 ( 3, 4| 2, 3) =    0.0000000000
 ( 3, 4| 2, 4) =    0.0000000000
 ( 3, 4| 2, 5) =    0.0000000000
 ( 3, 4| 3, 2) =    0.0000000000
 ( 3, 4| 3, 3) =    0.0000000000
 ( 3, 4| 3, 4) =    0.0168691395
 ( 3, 4| 3, 5) =    0.0000000000
 ( 3, 4| 4, 2) =    0.0000000000
 ( 3, 4| 4, 3) =    0.0168691395
 ( 3, 4| 4, 4) =    0.0000000000
 ( 3, 4| 4, 5) =    0.0000000000
 ( 3, 4| 5, 2) =    0.0000000000
 ( 3, 4| 5, 3) =    0.0000000000
 ( 3, 4| 5, 4) =    0.0000000000
 ( 3, 4| 5, 5) =    0.0000000000
 ( 3, 5| 2, 2) =    0.0000000000
 ( 3, 5| 2, 3) =    0.0000000000
 ( 3, 5| 2, 4) =    0.0000000000
 ( 3, 5| 2, 5) =    0.0000000000
 ( 3, 5| 3, 2) =    0.0000000000
 ( 3, 5| 3, 3) =    0.0000000000
 ( 3, 5| 3, 4) =    0.0000000000
 ( 3, 5| 3, 5) =    0.0168691395
 ( 3, 5| 4, 2) =    0.0000000000
 ( 3, 5| 4, 3) =    0.0000000000
 ( 3, 5| 4, 4) =    0.0000000000
 ( 3, 5| 4, 5) =    0.0000000000
 ( 3, 5| 5, 2) =    0.0000000000
 ( 3, 5| 5, 3) =    0.0168691395
 ( 3, 5| 5, 4) =    0.0000000000
 ( 3, 5| 5, 5) =    0.0000000000
 ( 4, 2| 2, 2) =    0.0000000000
 ( 4, 2| 2, 3) =    0.0000000000
 ( 4, 2| 2, 4) =    0.0641843286
 ( 4, 2| 2, 5) =    0.0000000000
 ( 4, 2| 3, 2) =    0.0000000000
 ( 4, 2| 3, 3) =    0.0000000000
 ( 4, 2| 3, 4) =    0.0000000000
 ( 4, 2| 3, 5) =    0.0000000000
 ( 4, 2| 4, 2) =    0.0641843286
 ( 4, 2| 4, 3) =    0.0000000000
 ( 4, 2| 4, 4) =    0.0000000000
 ( 4, 2| 4, 5) =    0.0000000000
 ( 4, 2| 5, 2) =    0.0000000000
 ( 4, 2| 5, 3) =    0.0000000000
 ( 4, 2| 5, 4) =    0.0000000000
 ( 4, 2| 5, 5) =    0.0000000000
 ( 4, 3| 2, 2) =    0.0000000000
 ( 4, 3| 2, 3) =    0.0000000000
 ( 4, 3| 2, 4) =    0.0000000000
 ( 4, 3| 2, 5) =    0.0000000000
 ( 4, 3| 3, 2) =    0.0000000000
 ( 4, 3| 3, 3) =    0.0000000000
 ( 4, 3| 3, 4) =    0.0168691395
 ( 4, 3| 3, 5) =    0.0000000000
 ( 4, 3| 4, 2) =    0.0000000000
 ( 4, 3| 4, 3) =    0.0168691395
 ( 4, 3| 4, 4) =    0.0000000000
 ( 4, 3| 4, 5) =    0.0000000000
 ( 4, 3| 5, 2) =    0.0000000000
 ( 4, 3| 5, 3) =    0.0000000000
 ( 4, 3| 5, 4) =    0.0000000000
 ( 4, 3| 5, 5) =    0.0000000000
 ( 4, 4| 2, 2) =    0.2904969756
 ( 4, 4| 2, 3) =    0.0000000000
 ( 4, 4| 2, 4) =    0.0000000000
 ( 4, 4| 2, 5) =    0.0000000000
 ( 4, 4| 3, 2) =    0.0000000000
 ( 4, 4| 3, 3) =    0.2792072321
 ( 4, 4| 3, 4) =    0.0000000000
 ( 4, 4| 3, 5) =    0.0000000000
 ( 4, 4| 4, 2) =    0.0000000000
 ( 4, 4| 4, 3) =    0.0000000000
 ( 4, 4| 4, 4) =    0.3129455112
 ( 4, 4| 4, 5) =    0.0000000000
 ( 4, 4| 5, 2) =    0.0000000000
 ( 4, 4| 5, 3) =    0.0000000000
 ( 4, 4| 5, 4) =    0.0000000000
 ( 4, 4| 5, 5) =    0.2792072321
 ( 4, 5| 2, 2) =    0.0000000000
 ( 4, 5| 2, 3) =    0.0000000000
 ( 4, 5| 2, 4) =    0.0000000000
 ( 4, 5| 2, 5) =    0.0000000000
 ( 4, 5| 3, 2) =    0.0000000000
 ( 4, 5| 3, 3) =    0.0000000000
 ( 4, 5| 3, 4) =    0.0000000000
 ( 4, 5| 3, 5) =    0.0000000000
 ( 4, 5| 4, 2) =    0.0000000000
 ( 4, 5| 4, 3) =    0.0000000000
 ( 4, 5| 4, 4) =    0.0000000000
 ( 4, 5| 4, 5) =    0.0168691395
 ( 4, 5| 5, 2) =    0.0000000000
 ( 4, 5| 5, 3) =    0.0000000000
 ( 4, 5| 5, 4) =    0.0168691395
 ( 4, 5| 5, 5) =    0.0000000000
 ( 5, 2| 2, 2) =    0.0000000000
 ( 5, 2| 2, 3) =    0.0000000000
 ( 5, 2| 2, 4) =    0.0000000000
 ( 5, 2| 2, 5) =    0.0641843286
 ( 5, 2| 3, 2) =    0.0000000000
 ( 5, 2| 3, 3) =    0.0000000000
 ( 5, 2| 3, 4) =    0.0000000000
 ( 5, 2| 3, 5) =    0.0000000000
 ( 5, 2| 4, 2) =    0.0000000000
 ( 5, 2| 4, 3) =    0.0000000000
 ( 5, 2| 4, 4) =    0.0000000000
 ( 5, 2| 4, 5) =    0.0000000000
 ( 5, 2| 5, 2) =    0.0641843286
 ( 5, 2| 5, 3) =    0.0000000000
 ( 5, 2| 5, 4) =    0.0000000000
 ( 5, 2| 5, 5) =    0.0000000000
 ( 5, 3| 2, 2) =    0.0000000000
 ( 5, 3| 2, 3) =    0.0000000000
 ( 5, 3| 2, 4) =    0.0000000000
 ( 5, 3| 2, 5) =    0.0000000000
 ( 5, 3| 3, 2) =    0.0000000000
 ( 5, 3| 3, 3) =    0.0000000000
 ( 5, 3| 3, 4) =    0.0000000000
 ( 5, 3| 3, 5) =    0.0168691395
 ( 5, 3| 4, 2) =    0.0000000000
 ( 5, 3| 4, 3) =    0.0000000000
 ( 5, 3| 4, 4) =    0.0000000000
 ( 5, 3| 4, 5) =    0.0000000000
 ( 5, 3| 5, 2) =    0.0000000000
 ( 5, 3| 5, 3) =    0.0168691395
 ( 5, 3| 5, 4) =    0.0000000000
 ( 5, 3| 5, 5) =    0.0000000000
 ( 5, 4| 2, 2) =    0.0000000000
 ( 5, 4| 2, 3) =    0.0000000000
 ( 5, 4| 2, 4) =    0.0000000000
 ( 5, 4| 2, 5) =    0.0000000000
 ( 5, 4| 3, 2) =    0.0000000000
 ( 5, 4| 3, 3) =    0.0000000000
 ( 5, 4| 3, 4) =    0.0000000000
 ( 5, 4| 3, 5) =    0.0000000000
 ( 5, 4| 4, 2) =    0.0000000000
 ( 5, 4| 4, 3) =    0.0000000000
 ( 5, 4| 4, 4) =    0.0000000000
 ( 5, 4| 4, 5) =    0.0168691395
 ( 5, 4| 5, 2) =    0.0000000000
 ( 5, 4| 5, 3) =    0.0000000000
 ( 5, 4| 5, 4) =    0.0168691395
 ( 5, 4| 5, 5) =    0.0000000000
 ( 5, 5| 2, 2) =    0.2904969756
 ( 5, 5| 2, 3) =    0.0000000000
 ( 5, 5| 2, 4) =    0.0000000000
 ( 5, 5| 2, 5) =    0.0000000000
 ( 5, 5| 3, 2) =    0.0000000000
 ( 5, 5| 3, 3) =    0.2792072321
 ( 5, 5| 3, 4) =    0.0000000000
 ( 5, 5| 3, 5) =    0.0000000000
 ( 5, 5| 4, 2) =    0.0000000000
 ( 5, 5| 4, 3) =    0.0000000000
 ( 5, 5| 4, 4) =    0.2792072321
 ( 5, 5| 4, 5) =    0.0000000000
 ( 5, 5| 5, 2) =    0.0000000000
 ( 5, 5| 5, 3) =    0.0000000000
 ( 5, 5| 5, 4) =    0.0000000000
 ( 5, 5| 5, 5) =    0.3129455112
    3      -7.8609650814      5.31E-03

 Q-Chem warning in module 0, line   71:

 AOINTS_DEBUG_PRINT=4

  *** Integrals not dumped for new Path2.  For full
  *** integral dump, compile with -DNO_NEW_PATH2 
 
 AOInts used (LenV =  7749998) to compute the J vector and K matrices
 ( 1, 1| 1, 1) =    1.6803951695
 ( 6, 6| 1, 1) =    0.3305221950
 ( 6, 6| 6, 6) =    0.7746059439
 ( 6, 1| 1, 1) =    0.0720176337
 ( 6, 1| 6, 6) =    0.0270653194
 ( 6, 1| 6, 1) =    0.0040578347
 ( 1, 1| 2, 6) =    0.1514470285
 ( 1, 1| 2, 1) =    0.2654203646
 ( 1, 1| 3, 6) =    0.0000000000
 ( 1, 1| 3, 1) =    0.0000000000
 ( 1, 1| 4, 6) =    0.0000000000
 ( 1, 1| 4, 1) =    0.0000000000
 ( 1, 1| 5, 6) =    0.1825672866
 ( 1, 1| 5, 1) =    0.0000000000
 ( 6, 6| 2, 6) =    0.2228469301
 ( 6, 6| 2, 1) =    0.0793312296
 ( 6, 6| 3, 6) =    0.0000000000
 ( 6, 6| 3, 1) =    0.0000000000
 ( 6, 6| 4, 6) =    0.0000000000
 ( 6, 6| 4, 1) =    0.0000000000
 ( 6, 6| 5, 6) =    0.3233166098
 ( 6, 6| 5, 1) =    0.0153190953
 ( 6, 1| 2, 6) =    0.0115913569
 ( 6, 1| 2, 1) =    0.0136168437
 ( 6, 1| 3, 6) =    0.0000000000
 ( 6, 1| 3, 1) =    0.0000000000
 ( 6, 1| 4, 6) =    0.0000000000
 ( 6, 1| 4, 1) =    0.0000000000
 ( 6, 1| 5, 6) =    0.0147694282
 ( 6, 1| 5, 1) =    0.0016083316
 ( 1, 1| 2, 2) =    0.3977268611
 ( 1, 1| 2, 3) =    0.0000000000
 ( 1, 1| 2, 4) =    0.0000000000
 ( 1, 1| 2, 5) =    0.0000000000
 ( 1, 1| 3, 2) =    0.0000000000
 ( 1, 1| 3, 3) =    0.3966396423
 ( 1, 1| 3, 4) =    0.0000000000
 ( 1, 1| 3, 5) =    0.0000000000
 ( 1, 1| 4, 2) =    0.0000000000
 ( 1, 1| 4, 3) =    0.0000000000
 ( 1, 1| 4, 4) =    0.3966396423
 ( 1, 1| 4, 5) =    0.0000000000
 ( 1, 1| 5, 2) =    0.0000000000
 ( 1, 1| 5, 3) =    0.0000000000
 ( 1, 1| 5, 4) =    0.0000000000
 ( 1, 1| 5, 5) =    0.3966396423
 ( 6, 6| 2, 2) =    0.2814530730
 ( 6, 6| 2, 3) =    0.0000000000
 ( 6, 6| 2, 4) =    0.0000000000
 ( 6, 6| 2, 5) =    0.1058735809
 ( 6, 6| 3, 2) =    0.0000000000
 ( 6, 6| 3, 3) =    0.2570646344
 ( 6, 6| 3, 4) =    0.0000000000
 ( 6, 6| 3, 5) =    0.0000000000
 ( 6, 6| 4, 2) =    0.0000000000
 ( 6, 6| 4, 3) =    0.0000000000
 ( 6, 6| 4, 4) =    0.2570646344
 ( 6, 6| 4, 5) =    0.0000000000
 ( 6, 6| 5, 2) =    0.1058735809
 ( 6, 6| 5, 3) =    0.0000000000
 ( 6, 6| 5, 4) =    0.0000000000
 ( 6, 6| 5, 5) =    0.3298285907
 ( 6, 1| 2, 2) =    0.0257520042
 ( 6, 1| 2, 3) =    0.0000000000
 ( 6, 1| 2, 4) =    0.0000000000
 ( 6, 1| 2, 5) =    0.0031074559
 ( 6, 1| 3, 2) =    0.0000000000
 ( 6, 1| 3, 3) =    0.0254488194
 ( 6, 1| 3, 4) =    0.0000000000
 ( 6, 1| 3, 5) =    0.0000000000
 ( 6, 1| 4, 2) =    0.0000000000
 ( 6, 1| 4, 3) =    0.0000000000
 ( 6, 1| 4, 4) =    0.0254488194
 ( 6, 1| 4, 5) =    0.0000000000
 ( 6, 1| 5, 2) =    0.0031074559
 ( 6, 1| 5, 3) =    0.0000000000
 ( 6, 1| 5, 4) =    0.0000000000
 ( 6, 1| 5, 5) =    0.0263703332
 ( 2, 6| 2, 6) =    0.0743046791
 ( 2, 6| 3, 6) =    0.0000000000
 ( 2, 6| 4, 6) =    0.0000000000
 ( 2, 6| 5, 6) =    0.1035610849
 ( 3, 6| 2, 6) =    0.0000000000
 ( 3, 6| 3, 6) =    0.0056683401
 ( 3, 6| 4, 6) =    0.0000000000
 ( 3, 6| 5, 6) =    0.0000000000
 ( 4, 6| 2, 6) =    0.0000000000
 ( 4, 6| 3, 6) =    0.0000000000
 ( 4, 6| 4, 6) =    0.0056683401
 ( 4, 6| 5, 6) =    0.0000000000
 ( 5, 6| 2, 6) =    0.1035610849
 ( 5, 6| 3, 6) =    0.0000000000
 ( 5, 6| 4, 6) =    0.0000000000
 ( 5, 6| 5, 6) =    0.1467486644
 ( 2, 1| 2, 6) =    0.0356972456
 ( 2, 1| 2, 1) =    0.0499414572
 ( 2, 1| 3, 6) =    0.0000000000
 ( 2, 1| 3, 1) =    0.0000000000
 ( 2, 1| 4, 6) =    0.0000000000
 ( 2, 1| 4, 1) =    0.0000000000
 ( 2, 1| 5, 6) =    0.0435263966
 ( 2, 1| 5, 1) =    0.0000000000
 ( 3, 1| 2, 6) =    0.0000000000
 ( 3, 1| 2, 1) =    0.0000000000
 ( 3, 1| 3, 6) =    0.0030366495
 ( 3, 1| 3, 1) =    0.0089813193
 ( 3, 1| 4, 6) =    0.0000000000
 ( 3, 1| 4, 1) =    0.0000000000
 ( 3, 1| 5, 6) =    0.0000000000
 ( 3, 1| 5, 1) =    0.0000000000
 ( 4, 1| 2, 6) =    0.0000000000
 ( 4, 1| 2, 1) =    0.0000000000
 ( 4, 1| 3, 6) =    0.0000000000
 ( 4, 1| 3, 1) =    0.0000000000
 ( 4, 1| 4, 6) =    0.0030366495
 ( 4, 1| 4, 1) =    0.0089813193
 ( 4, 1| 5, 6) =    0.0000000000
 ( 4, 1| 5, 1) =    0.0000000000
 ( 5, 1| 2, 6) =    0.0058278744
 ( 5, 1| 2, 1) =    0.0000000000
 ( 5, 1| 3, 6) =    0.0000000000
 ( 5, 1| 3, 1) =    0.0000000000
 ( 5, 1| 4, 6) =    0.0000000000
 ( 5, 1| 4, 1) =    0.0000000000
 ( 5, 1| 5, 6) =    0.0090724452
 ( 5, 1| 5, 1) =    0.0089813193
 ( 2, 6| 2, 2) =    0.1159993520
 ( 2, 6| 2, 3) =    0.0000000000
 ( 2, 6| 2, 4) =    0.0000000000
 ( 2, 6| 2, 5) =    0.0337640065
 ( 2, 6| 3, 2) =    0.0000000000
 ( 2, 6| 3, 3) =    0.1102618030
 ( 2, 6| 3, 4) =    0.0000000000
 ( 2, 6| 3, 5) =    0.0000000000
 ( 2, 6| 4, 2) =    0.0000000000
 ( 2, 6| 4, 3) =    0.0000000000
 ( 2, 6| 4, 4) =    0.1102618030
 ( 2, 6| 4, 5) =    0.0000000000
 ( 2, 6| 5, 2) =    0.0337640065
 ( 2, 6| 5, 3) =    0.0000000000
 ( 2, 6| 5, 4) =    0.0000000000
 ( 2, 6| 5, 5) =    0.1273520869
 ( 3, 6| 2, 2) =    0.0000000000
 ( 3, 6| 2, 3) =    0.0136575064
 ( 3, 6| 2, 4) =    0.0000000000
 ( 3, 6| 2, 5) =    0.0000000000
 ( 3, 6| 3, 2) =    0.0136575064
 ( 3, 6| 3, 3) =    0.0000000000
 ( 3, 6| 3, 4) =    0.0000000000
 ( 3, 6| 3, 5) =    0.0053549540
 ( 3, 6| 4, 2) =    0.0000000000
 ( 3, 6| 4, 3) =    0.0000000000
 ( 3, 6| 4, 4) =    0.0000000000
 ( 3, 6| 4, 5) =    0.0000000000
 ( 3, 6| 5, 2) =    0.0000000000
 ( 3, 6| 5, 3) =    0.0053549540
 ( 3, 6| 5, 4) =    0.0000000000
 ( 3, 6| 5, 5) =    0.0000000000
 ( 4, 6| 2, 2) =    0.0000000000
 ( 4, 6| 2, 3) =    0.0000000000
 ( 4, 6| 2, 4) =    0.0136575064
 ( 4, 6| 2, 5) =    0.0000000000
 ( 4, 6| 3, 2) =    0.0000000000
 ( 4, 6| 3, 3) =    0.0000000000
 ( 4, 6| 3, 4) =    0.0000000000
 ( 4, 6| 3, 5) =    0.0000000000
 ( 4, 6| 4, 2) =    0.0136575064
 ( 4, 6| 4, 3) =    0.0000000000
 ( 4, 6| 4, 4) =    0.0000000000
 ( 4, 6| 4, 5) =    0.0053549540
 ( 4, 6| 5, 2) =    0.0000000000
 ( 4, 6| 5, 3) =    0.0000000000
 ( 4, 6| 5, 4) =    0.0053549540
 ( 4, 6| 5, 5) =    0.0000000000
 ( 5, 6| 2, 2) =    0.1469830696
 ( 5, 6| 2, 3) =    0.0000000000
 ( 5, 6| 2, 4) =    0.0000000000
 ( 5, 6| 2, 5) =    0.0516490313
 ( 5, 6| 3, 2) =    0.0000000000
 ( 5, 6| 3, 3) =    0.1371663806
 ( 5, 6| 3, 4) =    0.0000000000
 ( 5, 6| 3, 5) =    0.0000000000
 ( 5, 6| 4, 2) =    0.0000000000
 ( 5, 6| 4, 3) =    0.0000000000
 ( 5, 6| 4, 4) =    0.1371663806
 ( 5, 6| 4, 5) =    0.0000000000
 ( 5, 6| 5, 2) =    0.0516490313
 ( 5, 6| 5, 3) =    0.0000000000
 ( 5, 6| 5, 4) =    0.0000000000
 ( 5, 6| 5, 5) =    0.1664352431
 ( 2, 1| 2, 2) =    0.0928601436
 ( 2, 1| 2, 3) =    0.0000000000
 ( 2, 1| 2, 4) =    0.0000000000
 ( 2, 1| 2, 5) =    0.0000000000
 ( 2, 1| 3, 2) =    0.0000000000
 ( 2, 1| 3, 3) =    0.0928803968
 ( 2, 1| 3, 4) =    0.0000000000
 ( 2, 1| 3, 5) =    0.0000000000
 ( 2, 1| 4, 2) =    0.0000000000
 ( 2, 1| 4, 3) =    0.0000000000
 ( 2, 1| 4, 4) =    0.0928803968
 ( 2, 1| 4, 5) =    0.0000000000
 ( 2, 1| 5, 2) =    0.0000000000
 ( 2, 1| 5, 3) =    0.0000000000
 ( 2, 1| 5, 4) =    0.0000000000
 ( 2, 1| 5, 5) =    0.0928803968
 ( 3, 1| 2, 2) =    0.0000000000
 ( 3, 1| 2, 3) =    0.0137882689
 ( 3, 1| 2, 4) =    0.0000000000
 ( 3, 1| 2, 5) =    0.0000000000
 ( 3, 1| 3, 2) =    0.0137882689
 ( 3, 1| 3, 3) =    0.0000000000
 ( 3, 1| 3, 4) =    0.0000000000
 ( 3, 1| 3, 5) =    0.0000000000
 ( 3, 1| 4, 2) =    0.0000000000
 ( 3, 1| 4, 3) =    0.0000000000
 ( 3, 1| 4, 4) =    0.0000000000
 ( 3, 1| 4, 5) =    0.0000000000
 ( 3, 1| 5, 2) =    0.0000000000
 ( 3, 1| 5, 3) =    0.0000000000
 ( 3, 1| 5, 4) =    0.0000000000
 ( 3, 1| 5, 5) =    0.0000000000
 ( 4, 1| 2, 2) =    0.0000000000
 ( 4, 1| 2, 3) =    0.0000000000
 ( 4, 1| 2, 4) =    0.0137882689
 ( 4, 1| 2, 5) =    0.0000000000
 ( 4, 1| 3, 2) =    0.0000000000
 ( 4, 1| 3, 3) =    0.0000000000
 ( 4, 1| 3, 4) =    0.0000000000
 ( 4, 1| 3, 5) =    0.0000000000
 ( 4, 1| 4, 2) =    0.0137882689
 ( 4, 1| 4, 3) =    0.0000000000
 ( 4, 1| 4, 4) =    0.0000000000
 ( 4, 1| 4, 5) =    0.0000000000
 ( 4, 1| 5, 2) =    0.0000000000
 ( 4, 1| 5, 3) =    0.0000000000
 ( 4, 1| 5, 4) =    0.0000000000
 ( 4, 1| 5, 5) =    0.0000000000
 ( 5, 1| 2, 2) =    0.0000000000
 ( 5, 1| 2, 3) =    0.0000000000
 ( 5, 1| 2, 4) =    0.0000000000
 ( 5, 1| 2, 5) =    0.0137882689
 ( 5, 1| 3, 2) =    0.0000000000
 ( 5, 1| 3, 3) =    0.0000000000
 ( 5, 1| 3, 4) =    0.0000000000
 ( 5, 1| 3, 5) =    0.0000000000
 ( 5, 1| 4, 2) =    0.0000000000
 ( 5, 1| 4, 3) =    0.0000000000
 ( 5, 1| 4, 4) =    0.0000000000
 ( 5, 1| 4, 5) =    0.0000000000
 ( 5, 1| 5, 2) =    0.0137882689
 ( 5, 1| 5, 3) =    0.0000000000
 ( 5, 1| 5, 4) =    0.0000000000
 ( 5, 1| 5, 5) =    0.0000000000
 ( 2, 2| 2, 2) =    0.2905622950
 ( 2, 2| 2, 3) =    0.0000000000
 ( 2, 2| 2, 4) =    0.0000000000
 ( 2, 2| 2, 5) =    0.0000000000
 ( 2, 2| 3, 2) =    0.0000000000
 ( 2, 2| 3, 3) =    0.2904969756
 ( 2, 2| 3, 4) =    0.0000000000
 ( 2, 2| 3, 5) =    0.0000000000
 ( 2, 2| 4, 2) =    0.0000000000
 ( 2, 2| 4, 3) =    0.0000000000
 ( 2, 2| 4, 4) =    0.2904969756
 ( 2, 2| 4, 5) =    0.0000000000
 ( 2, 2| 5, 2) =    0.0000000000
 ( 2, 2| 5, 3) =    0.0000000000
 ( 2, 2| 5, 4) =    0.0000000000
 ( 2, 2| 5, 5) =    0.2904969756
 ( 2, 3| 2, 2) =    0.0000000000
 ( 2, 3| 2, 3) =    0.0641843286
 ( 2, 3| 2, 4) =    0.0000000000
 ( 2, 3| 2, 5) =    0.0000000000
 ( 2, 3| 3, 2) =    0.0641843286
 ( 2, 3| 3, 3) =    0.0000000000
 ( 2, 3| 3, 4) =    0.0000000000
 ( 2, 3| 3, 5) =    0.0000000000
 ( 2, 3| 4, 2) =    0.0000000000
 ( 2, 3| 4, 3) =    0.0000000000
 ( 2, 3| 4, 4) =    0.0000000000
 ( 2, 3| 4, 5) =    0.0000000000
 ( 2, 3| 5, 2) =    0.0000000000
 ( 2, 3| 5, 3) =    0.0000000000
 ( 2, 3| 5, 4) =    0.0000000000
 ( 2, 3| 5, 5) =    0.0000000000
 ( 2, 4| 2, 2) =    0.0000000000
 ( 2, 4| 2, 3) =    0.0000000000
 ( 2, 4| 2, 4) =    0.0641843286
 ( 2, 4| 2, 5) =    0.0000000000
 ( 2, 4| 3, 2) =    0.0000000000
 ( 2, 4| 3, 3) =    0.0000000000
 ( 2, 4| 3, 4) =    0.0000000000
 ( 2, 4| 3, 5) =    0.0000000000
 ( 2, 4| 4, 2) =    0.0641843286
 ( 2, 4| 4, 3) =    0.0000000000
 ( 2, 4| 4, 4) =    0.0000000000
 ( 2, 4| 4, 5) =    0.0000000000
 ( 2, 4| 5, 2) =    0.0000000000
 ( 2, 4| 5, 3) =    0.0000000000
 ( 2, 4| 5, 4) =    0.0000000000
 ( 2, 4| 5, 5) =    0.0000000000
 ( 2, 5| 2, 2) =    0.0000000000
 ( 2, 5| 2, 3) =    0.0000000000
 ( 2, 5| 2, 4) =    0.0000000000
 ( 2, 5| 2, 5) =    0.0641843286
 ( 2, 5| 3, 2) =    0.0000000000
 ( 2, 5| 3, 3) =    0.0000000000
 ( 2, 5| 3, 4) =    0.0000000000
 ( 2, 5| 3, 5) =    0.0000000000
 ( 2, 5| 4, 2) =    0.0000000000
 ( 2, 5| 4, 3) =    0.0000000000
 ( 2, 5| 4, 4) =    0.0000000000
 ( 2, 5| 4, 5) =    0.0000000000
 ( 2, 5| 5, 2) =    0.0641843286
 ( 2, 5| 5, 3) =    0.0000000000
 ( 2, 5| 5, 4) =    0.0000000000
 ( 2, 5| 5, 5) =    0.0000000000
 ( 3, 2| 2, 2) =    0.0000000000
 ( 3, 2| 2, 3) =    0.0641843286
 ( 3, 2| 2, 4) =    0.0000000000
 ( 3, 2| 2, 5) =    0.0000000000
 ( 3, 2| 3, 2) =    0.0641843286
[...]
    6   0.00000   0.00000   0.00000   0.32886   0.00000   0.00000
 Multipole Matrix (0,0,1)
           1         2         3         4         5         6
    1   0.00000   0.00000   0.00000   0.00000   0.14724   0.03670
    2   0.00000   0.00000   0.00000   0.00000   1.80330   0.93925
    3   0.00000   0.00000   0.00000   0.00000   0.00000   0.00000
    4   0.00000   0.00000   0.00000   0.00000   0.00000   0.00000
    5   0.14724   1.80330   0.00000   0.00000   0.00000   1.43159
    6   0.03670   0.93925   0.00000   0.00000   1.43159   3.01392
 Multipole Matrix (2,0,0)
           1         2         3         4         5         6
    1   0.13802   0.11421   0.00000   0.00000   0.00000   0.02572
    2   0.11421   3.88914   0.00000   0.00000   0.00000   0.61920
    3   0.00000   0.00000   7.05010   0.00000   0.00000   0.00000
    4   0.00000   0.00000   0.00000   2.35003   0.00000   0.00000
    5   0.00000   0.00000   0.00000   0.00000   2.35003   0.63675
    6   0.02572   0.61920   0.00000   0.00000   0.63675   0.64952
 Multipole Matrix (1,1,0)
           1         2         3         4         5         6
    1   0.00000   0.00000   0.00000   0.00000   0.00000   0.00000
    2   0.00000   0.00000   0.00000   0.00000   0.00000   0.00000
    3   0.00000   0.00000   0.00000   2.35003   0.00000   0.00000
    4   0.00000   0.00000   2.35003   0.00000   0.00000   0.00000
    5   0.00000   0.00000   0.00000   0.00000   0.00000   0.00000
    6   0.00000   0.00000   0.00000   0.00000   0.00000   0.00000
 Multipole Matrix (0,2,0)
           1         2         3         4         5         6
    1   0.13802   0.11421   0.00000   0.00000   0.00000   0.02572
    2   0.11421   3.88914   0.00000   0.00000   0.00000   0.61920
    3   0.00000   0.00000   2.35003   0.00000   0.00000   0.00000
    4   0.00000   0.00000   0.00000   7.05010   0.00000   0.00000
    5   0.00000   0.00000   0.00000   0.00000   2.35003   0.63675
    6   0.02572   0.61920   0.00000   0.00000   0.63675   0.64952
 Multipole Matrix (1,0,1)
           1         2         3         4         5         6
    1   0.00000   0.00000   0.00000   0.00000   0.00000   0.00000
    2   0.00000   0.00000   0.00000   0.00000   0.00000   0.00000
    3   0.00000   0.00000   0.00000   0.00000   2.35003   0.63675
    4   0.00000   0.00000   0.00000   0.00000   0.00000   0.00000
    5   0.00000   0.00000   2.35003   0.00000   0.00000   0.00000
    6   0.00000   0.00000   0.63675   0.00000   0.00000   0.00000
 Multipole Matrix (0,1,1)
           1         2         3         4         5         6
    1   0.00000   0.00000   0.00000   0.00000   0.00000   0.00000
    2   0.00000   0.00000   0.00000   0.00000   0.00000   0.00000
    3   0.00000   0.00000   0.00000   0.00000   0.00000   0.00000
    4   0.00000   0.00000   0.00000   0.00000   2.35003   0.63675
    5   0.00000   0.00000   0.00000   2.35003   0.00000   0.00000
    6   0.00000   0.00000   0.00000   0.63675   0.00000   0.00000
 Multipole Matrix (0,0,2)
           1         2         3         4         5         6
    1   0.13802   0.11421   0.00000   0.00000   0.00000   0.05510
    2   0.11421   3.88914   0.00000   0.00000   0.00000   2.88387
    3   0.00000   0.00000   2.35003   0.00000   0.00000   0.00000
    4   0.00000   0.00000   0.00000   2.35003   0.00000   0.00000
    5   0.00000   0.00000   0.00000   0.00000   7.05010   4.41880
    6   0.05510   2.88387   0.00000   0.00000   4.41880   9.73326

 Q-Chem warning in module 0, line   71:

 AOINTS_DEBUG_PRINT=4

  *** Integrals not dumped for new Path2.  For full
  *** integral dump, compile with -DNO_NEW_PATH2 
 
 AOInts used (LenV =  7749998) to compute the 1-e spin-orbit ints
 d2( 1, 1| 0) =-14.234  0.000-14.234  0.000  0.000-14.234
             AB =  5.795  0.000  0.000  0.000  5.795  0.000  0.000  0.000  5.795
             BB =-14.234  0.000-14.234  0.000  0.000-14.234
 d2( 1, 1| 0) = -0.802  0.000 -0.802  0.000  0.000 -0.769
             AB =  0.784  0.000  0.000  0.000  0.784  0.000  0.000  0.000  0.806
             BB = -0.802  0.000 -0.802  0.000  0.000 -0.769
 d2( 6, 6| 0) = -0.179  0.000 -0.179  0.000  0.000 -0.148
             AB =  0.161  0.000  0.000  0.000  0.161  0.000  0.000  0.000  0.181
             BB = -0.179  0.000 -0.179  0.000  0.000 -0.148
 d2( 6, 6| 0) = -1.394  0.000 -1.394  0.000  0.000 -1.394
             AB =  0.568  0.000  0.000  0.000  0.568  0.000  0.000  0.000  0.568
             BB = -1.394  0.000 -1.394  0.000  0.000 -1.394
 d2( 6, 1| 0) = -0.033  0.000 -0.033  0.000  0.000  0.113
             AB =  0.022  0.000  0.000  0.000  0.022  0.000  0.000  0.000 -0.076
             BB = -0.180  0.000 -0.180  0.000  0.000 -0.102
 d2( 6, 1| 0) = -0.012  0.000 -0.012  0.000  0.000  0.032
             AB =  0.010  0.000  0.000  0.000  0.010  0.000  0.000  0.000 -0.046
             BB = -0.014  0.000 -0.014  0.000  0.000  0.069
 d2( 2, 6| 0) = -0.015  0.000 -0.015  0.000  0.000 -0.004
             AB =  0.014  0.000  0.000  0.000  0.014  0.000  0.000  0.000 -0.007
             BB = -0.028  0.000 -0.028  0.000  0.000  0.035
 d2( 2, 6| 0) = -0.037  0.000 -0.037  0.000  0.000  0.010
             AB =  0.023  0.000  0.000  0.000  0.023  0.000  0.000  0.000 -0.005
             BB = -0.147  0.000 -0.147  0.000  0.000 -0.126
 d2( 3, 6| 0) =  0.000  0.000  0.000 -0.038  0.000  0.000
             AB =  0.000  0.000  0.071  0.000  0.000  0.000  0.030  0.000  0.000
             BB =  0.000  0.000  0.000 -0.045  0.000  0.000
 d2( 3, 6| 0) =  0.000  0.000  0.000 -0.089  0.000  0.000
             AB =  0.000  0.000  0.053  0.000  0.000  0.000  0.053  0.000  0.000
             BB =  0.000  0.000  0.000 -0.041  0.000  0.000
 d2( 4, 6| 0) =  0.000  0.000  0.000  0.000 -0.038  0.000
             AB =  0.000  0.000  0.000  0.000  0.000  0.071  0.000  0.030  0.000
             BB =  0.000  0.000  0.000  0.000 -0.045  0.000
 d2( 4, 6| 0) =  0.000  0.000  0.000  0.000 -0.089  0.000
             AB =  0.000  0.000  0.000  0.000  0.000  0.053  0.000  0.053  0.000
             BB =  0.000  0.000  0.000  0.000 -0.041  0.000
 d2( 5, 6| 0) = -0.038  0.000 -0.038  0.000  0.000 -0.051
             AB =  0.030  0.000  0.000  0.000  0.030  0.000  0.000  0.000  0.047
             BB = -0.045  0.000 -0.045  0.000  0.000  0.001
 d2( 5, 6| 0) = -0.089  0.000 -0.089  0.000  0.000 -0.035
             AB =  0.053  0.000  0.000  0.000  0.053  0.000  0.000  0.000  0.028
             BB = -0.257  0.000 -0.257  0.000  0.000 -0.239
 d2( 2, 1| 0) =  0.067  0.000  0.067  0.000  0.000  0.067
             AB = -0.035  0.000  0.000  0.000 -0.035  0.000  0.000  0.000 -0.035
             BB = -0.572  0.000 -0.572  0.000  0.000 -0.572
 d2( 2, 1| 0) =  0.005  0.000  0.005  0.000  0.000  0.004
             AB = -0.005  0.000  0.000  0.000 -0.005  0.000  0.000  0.000 -0.004
             BB = -0.004  0.000 -0.004  0.000  0.000  0.021
 d2( 3, 1| 0) =  0.000  0.000  0.000  0.000  0.000  0.000
             AB =  0.000  0.000  0.000  0.000  0.000  0.000  0.000  0.000  0.000
             BB =  0.000  0.000  0.000  0.000  0.000  0.000
 d2( 3, 1| 0) =  0.000  0.000  0.000 -0.007  0.000  0.000
             AB =  0.000  0.000 -0.033  0.000  0.000  0.000  0.006  0.000  0.000
             BB =  0.000  0.000  0.000  0.029  0.000  0.000
 d2( 4, 1| 0) =  0.000  0.000  0.000  0.000  0.000  0.000
             AB =  0.000  0.000  0.000  0.000  0.000  0.000  0.000  0.000  0.000
             BB =  0.000  0.000  0.000  0.000  0.000  0.000
 d2( 4, 1| 0) =  0.000  0.000  0.000  0.000 -0.007  0.000
             AB =  0.000  0.000  0.000  0.000  0.000 -0.033  0.000  0.006  0.000
             BB =  0.000  0.000  0.000  0.000  0.029  0.000
 d2( 5, 1| 0) =  0.000  0.000  0.000  0.000  0.000  0.000
             AB =  0.000  0.000  0.000  0.000  0.000  0.000  0.000  0.000  0.000
             BB =  0.000  0.000  0.000  0.000  0.000  0.000
 d2( 5, 1| 0) = -0.007  0.000 -0.007  0.000  0.000 -0.020
             AB =  0.006  0.000  0.000  0.000  0.006  0.000  0.000  0.000 -0.017
             BB = -0.010  0.000 -0.010  0.000  0.000  0.065
 d2( 2, 2| 0) = -0.029  0.000 -0.029  0.000  0.000 -0.029
             AB =  0.020  0.000  0.000  0.000  0.020  0.000  0.000  0.000  0.020
             BB = -0.029  0.000 -0.029  0.000  0.000 -0.029
 d2( 2, 2| 0) = -0.025  0.000 -0.025  0.000  0.000 -0.019
             AB =  0.016  0.000  0.000  0.000  0.016  0.000  0.000  0.000  0.023
             BB = -0.025  0.000 -0.025  0.000  0.000 -0.019
 d2( 2, 3| 0) =  0.000  0.000  0.000  0.000  0.000  0.000
             AB =  0.000  0.000  0.000  0.000  0.000  0.000  0.000  0.000  0.000
             BB =  0.000  0.000  0.000  0.000  0.000  0.000
 d2( 2, 3| 0) =  0.000  0.000  0.000  0.002  0.000  0.000
             AB =  0.000  0.000  0.006  0.000  0.000  0.000 -0.011  0.000  0.000
             BB =  0.000  0.000  0.000 -0.021  0.000  0.000
 d2( 2, 4| 0) =  0.000  0.000  0.000  0.000  0.000  0.000
             AB =  0.000  0.000  0.000  0.000  0.000  0.000  0.000  0.000  0.000
             BB =  0.000  0.000  0.000  0.000  0.000  0.000
 d2( 2, 4| 0) =  0.000  0.000  0.000  0.000  0.002  0.000
             AB =  0.000  0.000  0.000  0.000  0.000  0.006  0.000 -0.011  0.000
             BB =  0.000  0.000  0.000  0.000 -0.021  0.000
 d2( 2, 5| 0) =  0.000  0.000  0.000  0.000  0.000  0.000
             AB =  0.000  0.000  0.000  0.000  0.000  0.000  0.000  0.000  0.000
             BB =  0.000  0.000  0.000  0.000  0.000  0.000
 d2( 2, 5| 0) = -0.014  0.000 -0.014  0.000  0.000 -0.002
             AB =  0.006  0.000  0.000  0.000  0.006  0.000  0.000  0.000  0.012
             BB = -0.021  0.000 -0.021  0.000  0.000 -0.032
 d2( 3, 2| 0) =  0.000  0.000  0.000  0.000  0.000  0.000
             AB =  0.000  0.000  0.000  0.000  0.000  0.000  0.000  0.000  0.000
             BB =  0.000  0.000  0.000  0.000  0.000  0.000
 d2( 3, 2| 0) =  0.000  0.000  0.000 -0.021  0.000  0.000
             AB =  0.000  0.000 -0.011  0.000  0.000  0.000  0.006  0.000  0.000
             BB =  0.000  0.000  0.000  0.002  0.000  0.000
 d2( 3, 3| 0) = -0.246  0.000 -0.082  0.000  0.000 -0.082
             AB =  0.310  0.000  0.000  0.000  0.050  0.000  0.000  0.000  0.050
             BB = -0.246  0.000 -0.082  0.000  0.000 -0.082
 d2( 3, 3| 0) = -0.120  0.000 -0.040  0.000  0.000 -0.032
             AB =  0.123  0.000  0.000  0.000  0.032  0.000  0.000  0.000  0.038
             BB = -0.120  0.000 -0.040  0.000  0.000 -0.032
 d2( 3, 4| 0) =  0.000 -0.082  0.000  0.000  0.000  0.000
             AB =  0.000  0.209  0.000  0.050  0.000  0.000  0.000  0.000  0.000
             BB =  0.000 -0.082  0.000  0.000  0.000  0.000
 d2( 3, 4| 0) =  0.000 -0.040  0.000  0.000  0.000  0.000
             AB =  0.000  0.059  0.000  0.032  0.000  0.000  0.000  0.000  0.000
             BB =  0.000 -0.040  0.000  0.000  0.000  0.000
 d2( 3, 5| 0) =  0.000  0.000  0.000 -0.082  0.000  0.000
             AB =  0.000  0.000  0.209  0.000  0.000  0.000  0.050  0.000  0.000
             BB =  0.000  0.000  0.000 -0.082  0.000  0.000
 d2( 3, 5| 0) =  0.000  0.000  0.000 -0.061  0.000  0.000
             AB =  0.000  0.000  0.036  0.000  0.000  0.000  0.038  0.000  0.000
             BB =  0.000  0.000  0.000 -0.032  0.000  0.000
 d2( 4, 2| 0) =  0.000  0.000  0.000  0.000  0.000  0.000
             AB =  0.000  0.000  0.000  0.000  0.000  0.000  0.000  0.000  0.000
             BB =  0.000  0.000  0.000  0.000  0.000  0.000
 d2( 4, 2| 0) =  0.000  0.000  0.000  0.000 -0.021  0.000
             AB =  0.000  0.000  0.000  0.000  0.000 -0.011  0.000  0.006  0.000
             BB =  0.000  0.000  0.000  0.000  0.002  0.000
 d2( 4, 3| 0) =  0.000 -0.082  0.000  0.000  0.000  0.000
             AB =  0.000  0.050  0.000  0.209  0.000  0.000  0.000  0.000  0.000
             BB =  0.000 -0.082  0.000  0.000  0.000  0.000
 d2( 4, 3| 0) =  0.000 -0.040  0.000  0.000  0.000  0.000
             AB =  0.000  0.032  0.000  0.059  0.000  0.000  0.000  0.000  0.000
             BB =  0.000 -0.040  0.000  0.000  0.000  0.000
 d2( 4, 4| 0) = -0.082  0.000 -0.246  0.000  0.000 -0.082
             AB =  0.050  0.000  0.000  0.000  0.310  0.000  0.000  0.000  0.050
             BB = -0.082  0.000 -0.246  0.000  0.000 -0.082
 d2( 4, 4| 0) = -0.040  0.000 -0.120  0.000  0.000 -0.032
             AB =  0.032  0.000  0.000  0.000  0.123  0.000  0.000  0.000  0.038
             BB = -0.040  0.000 -0.120  0.000  0.000 -0.032
 d2( 4, 5| 0) =  0.000  0.000  0.000  0.000 -0.082  0.000
             AB =  0.000  0.000  0.000  0.000  0.000  0.209  0.000  0.050  0.000
             BB =  0.000  0.000  0.000  0.000 -0.082  0.000
 d2( 4, 5| 0) =  0.000  0.000  0.000  0.000 -0.061  0.000
             AB =  0.000  0.000  0.000  0.000  0.000  0.036  0.000  0.038  0.000
             BB =  0.000  0.000  0.000  0.000 -0.032  0.000
 d2( 5, 2| 0) =  0.000  0.000  0.000  0.000  0.000  0.000
             AB =  0.000  0.000  0.000  0.000  0.000  0.000  0.000  0.000  0.000
             BB =  0.000  0.000  0.000  0.000  0.000  0.000
 d2( 5, 2| 0) = -0.021  0.000 -0.021  0.000  0.000 -0.032
             AB =  0.006  0.000  0.000  0.000  0.006  0.000  0.000  0.000  0.012
             BB = -0.014  0.000 -0.014  0.000  0.000 -0.002
 d2( 5, 3| 0) =  0.000  0.000  0.000 -0.082  0.000  0.000
             AB =  0.000  0.000  0.050  0.000  0.000  0.000  0.209  0.000  0.000
             BB =  0.000  0.000  0.000 -0.082  0.000  0.000
 d2( 5, 3| 0) =  0.000  0.000  0.000 -0.032  0.000  0.000
             AB =  0.000  0.000  0.038  0.000  0.000  0.000  0.036  0.000  0.000
             BB =  0.000  0.000  0.000 -0.061  0.000  0.000
 d2( 5, 4| 0) =  0.000  0.000  0.000  0.000 -0.082  0.000
             AB =  0.000  0.000  0.000  0.000  0.000  0.050  0.000  0.209  0.000
             BB =  0.000  0.000  0.000  0.000 -0.082  0.000
 d2( 5, 4| 0) =  0.000  0.000  0.000  0.000 -0.032  0.000
             AB =  0.000  0.000  0.000  0.000  0.000  0.038  0.000  0.036  0.000
             BB =  0.000  0.000  0.000  0.000 -0.061  0.000
 d2( 5, 5| 0) = -0.082  0.000 -0.082  0.000  0.000 -0.246
             AB =  0.050  0.000  0.000  0.000  0.050  0.000  0.000  0.000  0.310
             BB = -0.082  0.000 -0.082  0.000  0.000 -0.246
 d2( 5, 5| 0) = -0.061  0.000 -0.061  0.000  0.000 -0.125
             AB =  0.038  0.000  0.000  0.000  0.038  0.000  0.000  0.000  0.122
             BB = -0.061  0.000 -0.061  0.000  0.000 -0.125
 Angular Momentum Matrix (X-component)
           1         2         3         4         5         6
    1   0.00000   0.00000   0.00000   0.00000   0.00000   0.00000
    2   0.00000   0.00000   0.00000   0.00000   0.00000   0.00000
    3   0.00000   0.00000   0.00000   0.00000   0.00000   0.00000
    4   0.00000   0.00000   0.00000   0.00000   1.00000  -0.51386
    5   0.00000   0.00000   0.00000   1.00000   0.00000   0.00000
    6   0.00000   0.00000   0.00000  -0.51386   0.00000   0.00000
 Angular Momentum Matrix (Y-component)
           1         2         3         4         5         6
    1   0.00000   0.00000   0.00000   0.00000   0.00000   0.00000
    2   0.00000   0.00000   0.00000   0.00000   0.00000   0.00000
    3   0.00000   0.00000   0.00000   0.00000  -1.00000   0.51386
    4   0.00000   0.00000   0.00000   0.00000   0.00000   0.00000
    5   0.00000   0.00000  -1.00000   0.00000   0.00000   0.00000
    6   0.00000   0.00000   0.51386   0.00000   0.00000   0.00000
 Angular Momentum Matrix (Z-component)
           1         2         3         4         5         6
    1   0.00000   0.00000   0.00000   0.00000   0.00000   0.00000
    2   0.00000   0.00000   0.00000   0.00000   0.00000   0.00000
    3   0.00000   0.00000   0.00000   1.00000   0.00000   0.00000
    4   0.00000   0.00000   1.00000   0.00000   0.00000   0.00000
    5   0.00000   0.00000   0.00000   0.00000   0.00000   0.00000
    6   0.00000   0.00000   0.00000   0.00000   0.00000   0.00000
 Spin-Orbit Interaction Matrix (X-component)
           1         2         3         4         5         6
    1   0.00000   0.00000   0.00000  -0.03952   0.00000   0.00000
    2   0.00000   0.00000   0.00000  -0.01625   0.00000   0.00000
    3   0.00000   0.00000   0.00000   0.00000   0.00000   0.00000
    4  -0.03952  -0.01625   0.00000   0.00000  -0.47571   0.12195
    5   0.00000   0.00000   0.00000  -0.47571   0.00000   0.00000
    6   0.00000   0.00000   0.00000   0.12195   0.00000   0.00000
 Spin-Orbit Interaction Matrix (Y-component)
           1         2         3         4         5         6
    1   0.00000   0.00000   0.03952   0.00000   0.00000   0.00000
    2   0.00000   0.00000   0.01625   0.00000   0.00000   0.00000
    3   0.03952   0.01625   0.00000   0.00000   0.47571  -0.12195
    4   0.00000   0.00000   0.00000   0.00000   0.00000   0.00000
    5   0.00000   0.00000   0.47571   0.00000   0.00000   0.00000
    6   0.00000   0.00000  -0.12195   0.00000   0.00000   0.00000
 Spin-Orbit Interaction Matrix (Z-component)
           1         2         3         4         5         6
    1   0.00000   0.00000   0.00000   0.00000   0.00000   0.00000
    2   0.00000   0.00000   0.00000   0.00000   0.00000   0.00000
    3   0.00000   0.00000   0.00000  -0.50440   0.00000   0.00000
    4   0.00000   0.00000  -0.50440   0.00000   0.00000   0.00000
    5   0.00000   0.00000   0.00000   0.00000   0.00000   0.00000
    6   0.00000   0.00000   0.00000   0.00000   0.00000   0.00000
 SCF   energy in the final basis set = -7.8620269586
 Total energy in the final basis set = -7.8620269586
 Analysis of SCF Wavefunction
 
 --------------------------------------------------------------
 
                    Orbital Energies (a.u.)
 --------------------------------------------------------------
 
 Alpha MOs
 -- Occupied --
 -2.349  -0.286
 -- Virtual --
  0.078   0.164   0.164   0.549
 --------------------------------------------------------------
 
          Ground-State Mulliken Net Atomic Charges

     Atom                 Charge (a.u.)
  ----------------------------------------
      1 Li                   -0.016117
      2 H                     0.016117
  ----------------------------------------
  Sum of atomic charges =     0.000000

 -----------------------------------------------------------------
                    Cartesian Multipole Moments
 -----------------------------------------------------------------
    Charge (ESU x 10^10)
                 0.0000
    Dipole Moment (Debye)
         X       0.0000      Y       0.0000      Z      -4.8575
       Tot       4.8575
    Quadrupole Moments (Debye-Ang)
        XX      -5.2782     XY      -0.0000     YY      -5.2782
        XZ       0.0000     YZ       0.0000     ZZ      -8.8300
    Octopole Moments (Debye-Ang^2)
       XXX       0.0000    XXY       0.0000    XYY       0.0000
       YYY       0.0000    XXZ      -5.4453    XYZ       0.0000
       YYZ      -5.4453    XZZ       0.0000    YZZ       0.0000
       ZZZ     -17.8938
    Hexadecapole Moments (Debye-Ang^3)
      XXXX     -12.4612   XXXY      -0.0000   XXYY      -4.1537
      XYYY      -0.0000   YYYY     -12.4612   XXXZ       0.0000
      XXYZ       0.0000   XYYZ       0.0000   YYYZ       0.0000
      XXZZ      -9.4403   XYZZ      -0.0000   YYZZ      -9.4403
      XZZZ       0.0000   YZZZ       0.0000   ZZZZ     -44.4995
 -----------------------------------------------------------------
Archival summary:
1\1\copper\SP\HF\STO-3G\i11\eric\FriMay813:40:302015FriMay813:40:302015\0\\#,HF,STO-3G,\\0,1\Li\H,1,1.5949\\HF=-7.86202696\\@

 Total job time:  0.27s(wall), 0.26s(cpu) 
 Fri May  8 13:40:30 2015

        *************************************************************
        *                                                           *
        *  Thank you very much for using Q-Chem.  Have a nice day.  *
        *                                                           *
        *************************************************************


